Material_ID,Formula,Band_Gap,Energy_per_Atom,Formation_Energy_per_Atom
mp-1183009,Al(ClO2)3,0.31960000000000005,-4.4151267935,-0.5172297675
mp-1193321,AlPO5,0.06569999999999901,-7.216457122142857,-2.373477924948979
mp-1253889,AlCr2O4,0.0,-8.291514491428572,-2.171012378571429
mp-1259106,Al(WO2)2,0.0,-8.703766629285713,-1.63895515642857
mp-1272295,AlV2O4,0.3638,-8.684796270000001,-2.726905985714286
mp-1282714,AlV2O4,0.26170000000000004,-8.714824995357143,-2.756934711071428
mp-1384087,Al(SnO2)2,0.0,-6.392630685714286,-1.8845501771428572
mp-1391681,Al(CoO2)2,0.0,-7.1148988257142864,-1.714291212857143
mp-1385641,AlV2O4,0.0,-8.17801142,-2.220121135714286
mp-1390510,AlCr2O4,0.0,-8.24836379,-2.127861677142857
mp-541338,AlPO4,5.7862,-7.933998068333333,-3.108515839107142
mp-554185,AlPO4,5.6897,-7.931679273958333,-3.106197044732142
mp-756947,AlCoO3,0.827199999999999,-7.384206743499999,-2.239631630499999
mp-776116,AlPdO3,0.0,-6.687652707000001,-1.933784576
mp-5189,AlAsO4,3.865,-7.157343658333332,-2.456086594583332
mp-5331,AlPO4,5.6126000000000005,-7.9526544322222215,-3.12717220299603
mp-3955,AlPO4,5.6177,-7.95260171111111,-3.127119481884919
mp-1096824,AlAgO2,1.0623,-6.3445476025,-2.223438722916666
mp-1096807,Al(OF)3,0.382,-4.61469876,-1.138839335714285
mp-1277185,AlV2O4,0.0,-8.700836347142857,-2.742946062857143
mp-551918,AlBiO3,2.977899999999999,-6.9964094160000005,-2.5005107850000012
mp-559145,AlPO4,5.6623,-7.933053545347223,-3.107571316121031
mp-1045019,AlV3O6,0.4872,-8.744528739500002,-2.676022732500001
mp-1048819,Ti3AlO6,0.0,-8.964681142749999,-3.25269935175
mp-1048826,AlCr3O6,1.408699999999999,-8.79552057625,-2.55627214925
mp-1045119,Al(NiO2)3,0.0,-6.61577307525,-1.53839788525
mp-1048821,Al(FeO2)3,1.3122999999999991,-7.8968333765,-2.012492827499999
mp-559996,Al(PO3)3,5.5151,-7.789752592307693,-2.826395249917582
mp-1011710,Mn2AlO4,0.0,-8.411945222142858,-2.43173801726601
mp-1040497,AlV2O4,0.0,-8.37635663,-2.418466345714286
mp-1229068,AlCr3O8,0.0,-7.997486229166665,-1.973452372499998
mp-1393022,AlCr2O4,2.0559,-8.626059300714285,-2.505557187857142
mp-1400230,Al(WO2)2,0.0,-8.766692875,-1.701881402142856
mp-1444267,Al(SnO2)2,0.0,-6.5055772492857145,-1.997496740714284
mp-1437358,Al(FeO2)2,0.0,-7.518345538571428,-1.735850928571427
mp-3748,AlCuO2,1.7978,-6.852430552499987,-2.417254424999987
mp-555263,AlV2O4,0.0,-8.650284742857144,-2.692394458571429
mp-7748,NaAlO2,4.7292000000000005,-6.609946382499999,-2.864141727844827
mp-8001,LiAlO2,6.1183,-6.984548611875,-3.096943435208333
mp-1188939,Al(ClO2)3,2.5052,-4.809502526499999,-0.9116055005
mp-2920,LaAlO3,4.0189,-8.427286556,-3.722193366
mp-3408,CeAlO3,0.0,-8.524981815,-3.619700071999999
mp-3466,PrAlO3,4.1325,-8.332834387,-3.655848326333333
mp-5899,NdAlO3,4.353999999999999,-8.343991436999996,-3.672470181499995
mp-754435,LuAlO3,0.0002,-8.345041552,-3.722812292333333
mp-754936,DyAlO3,5.165999999999999,-8.359551958,-3.717985083333332
mp-756214,YAlO3,4.9586000000000015,-8.704976542999999,-3.685266473999999
mp-8110,AlBO3,5.8392,-8.17212798,-3.118357856833333
mp-555903,Al(IO3)3,3.346599999999999,-5.367120442692307,-1.3017925411538451
mp-562607,AlPO4,0.0,-5.255941700555556,-0.430459471329364
mp-560151,AlPO4,5.4854,-7.941642919444443,-3.116160690218252
mp-5859,AlPO4,5.508100000000001,-7.934967969861112,-3.109485740634921
mp-1251647,AlWO3,0.5902000000000001,-8.391159648666667,-2.081641833666666
mp-1333178,AlNiO3,0.0,-6.720091479333333,-1.846172374333333
mp-1343327,AlAgO3,0.048099999999999005,-5.907362490666667,-1.620883186
mp-1248370,AlMoO3,0.734799999999999,-8.046364926,-2.159343135000001
mp-1348445,AlCoO3,0.0,-7.247019016666667,-2.102443903666667
mp-1251690,AlCrO3,1.1578,-8.192928276,-2.544427012999999
mp-1248301,AlSnO3,0.0,-6.761913550666667,-2.242107410666667
mp-1253258,AlCuO3,0.0,-6.5108825233333345,-1.9731494203333342
mp-1260288,MnAlO3,0.0,-8.00080468,-2.4505098525862072
mp-1341716,TiAlO3,0.0,-8.400689786666668,-3.103699614333334
mp-1374707,AlSbO3,1.2462,-6.726732407,-2.18304039
mp-1376082,AlBiO3,0.7618,-6.532072210333334,-2.036173579333335
mp-560815,AlPO4,5.4968,-7.916194976203704,-3.090712746977513
mp-545974,AlPO4,5.3232,-7.9341497625,-3.108667533273809
mp-985293,Al(HO)3,5.8109,-6.146185238928572,-2.035476930178572
mp-1182592,LaAlO3,0.0,-5.52231379,-0.8172206000000001
mp-1101265,TmAlO3,3.5534,-8.33311484,-3.718722775000002
mp-1178547,AlRhO3,1.7659,-7.413761879000001,-2.223008536
mp-1178574,AlPdO3,0.0,-6.726789122,-1.9729209909999992
mp-1384488,AlVO3,0.0,-8.18761932,-2.652946337
mp-1384267,AlSbO3,0.0,-6.330808508,-1.787116490999999
mp-1405134,TiAlO3,0.0,-8.404063179000001,-3.107073006666667
mp-1400395,AlNiO3,0.0,-6.709563836000001,-1.835644731
mp-1406914,AlSnO3,0.0,-6.533496764000001,-2.013690624
mp-1412082,AlCuO3,0.0,-6.475611387000001,-1.937878284
mp-1385937,AlCrO3,0.0,-8.170159632,-2.521658369
mp-1386773,AlCoO3,0.0,-7.229388903999999,-2.084813790999999
mp-1400236,AlWO3,0.0,-8.202397247,-1.892879432
mp-1404877,AlAgO3,0.0,-5.667360678,-1.3808813733333332
mp-1392353,AlBiO3,0.641099999999999,-6.184146843,-1.688248212
mp-1389151,AlMoO3,0.0,-7.929805426,-2.042783635
mp-1398131,AlFeO3,0.0,-7.713172641,-2.301276629999999
mp-1444809,MnAlO3,0.0,-7.999472666,-2.449177838586207
mp-16613,AlAuO2,0.5888,-6.453496169999999,-2.224651209999999
mp-3098,AlCuO2,1.8148,-6.8528004887499865,-2.417624361249986
mp-754184,ErAlO3,3.560399999999999,-8.326985139,-3.695549607999999
mp-754157,AlInO3,2.162,-6.945375648,-2.675649130333332
mp-755358,LuAlO3,3.6479,-8.365620775,-3.7433915153333333
mp-759116,YbAlO3,0.0,-15.89785133,-3.664143685
mp-7964,YAlO3,3.4964999999999993,-8.648558362,-3.628848293
mp-9631,AlAgO2,1.4090999999999991,-6.425985976249988,-2.304877096666654
mp-1214919,Al(Bi3O5)4,0.0,-6.255281273333334,-1.7284567990909112
mp-1019514,AlPO4,5.477899999999999,-7.86262394138889,-3.037141712162698
mp-1019511,AlPO4,5.6861,-7.9208966045833336,-3.095414375357142
mp-1042107,AlW3O8,1.5411000000000001,-9.15257001125,-2.302265464583333
mp-1183022,AlPO4,1.9258000000000002,-6.816587902916666,-1.991105673690475
mp-1222192,Mg2AlO6,0.16110000000000002,-5.907274822222223,-1.8301323900000002
mp-1264966,AlFeO3,0.6687000000000001,-7.7426695995,-2.3307735885
mp-1248269,Al(CoO2)2,0.040699999999999,-7.147826106428572,-1.7472184935714292
mp-1252214,AlV2O4,0.2614,-8.230318927142857,-2.272428642857143
mp-1405591,MnAlO3,0.0,-3.318865026,2.231429801413792
mp-1404938,AlCoO3,0.025500000000000002,-2.411246398,2.733328715
mp-18827,AlVO4,3.0384,-8.233708902777778,-2.796821249444444
mp-37836,Al(HO)3,4.9076,-6.139024373571429,-2.028316064821429
mp-554883,Al(HO)3,4.9269,-6.141005541428571,-2.030297232678571
mp-555462,Al(HO)3,5.2535,-6.133158273571429,-2.022449964821429
mp-626414,Al(HO)3,4.8834,-6.139117405,-2.02840909625
mp-625316,Al(HO)3,4.9764,-6.131914440714286,-2.021206131964286
mp-625320,Al(HO)3,4.6615,-6.121758754285715,-2.011050445535715
mp-680424,AlPO4,3.5429999999999993,-7.1688905225,-2.343408293273809
mp-707977,AlPO4,5.7395,-7.934098383333332,-3.108616154107141
mp-727209,BaAlO5,0.6392,-6.082450755714285,-1.738971356428571
mp-768417,LaAlO3,4.4431,-8.396395141666668,-3.6913019516666683
mp-771703,LaAlO3,4.1704,-8.384799595333334,-3.679706405333334
mp-774250,MnAlO3,1.2511,-8.224187442,-2.673892614586207
mp-776216,AlCoO3,0.3481,-7.381012708999999,-2.236437595999999
mp-780421,LaAlO3,4.269299999999999,-8.34491938,-3.639826190000001
mp-4051,AlPO4,5.475,-7.944922501666666,-3.119440272440476
mp-1045627,AlCu7O12,0.0,-5.5388879755,-0.9481102465000001
mp-37990,AlPO4,5.5123,-7.929814842666665,-3.104332613440474
mp-14011,Al(PO3)3,5.712400000000001,-7.794605904711539,-2.831248562321429
mp-1024039,Mg3AlO4,0.0,-6.22798893375,-2.674385196875
mp-1178268,GdAlO3,1.8884999999999992,-10.146833046000001,-3.613716829
mp-1183115,AcAlO3,4.1024,-8.232146191999997,-3.690019421499996
mp-1183160,AlInO3,0.0,-6.512231168,-2.2425046503333332
mp-1183154,AlPbO3,0.0,-6.651739886,-2.191318702999999
mp-1183176,AlNiO3,0.0,-6.260375212,-1.386456107
mp-1183169,AlAgO3,0.0,-5.90149902,-1.615019715333333
mp-1183134,AlSbO3,1.1346,-6.813236745999999,-2.269544728999999
mp-1183128,AlVO3,0.0,-7.805885834,-2.271212851
mp-1183283,BaAlO3,0.0,-6.997089008,-2.895402251
mp-1183133,AlIrO3,0.0,-6.686330656,-1.200752050999999
mp-1183159,AlAuO3,0.0,-5.773129062000001,-1.400460893
mp-1184150,ErAlO3,3.0097,-8.226557721999999,-3.595122190999999
mp-1184936,KAlO3,0.0,-6.000558207999999,-2.056392494449999
mp-1185485,LuAlO3,3.1252,-8.171755614,-3.549526354333333
mp-1185313,LiAlO3,0.0,-6.204398784,-2.104722441666666
mp-1186097,NaAlO3,0.0,-6.112593596,-2.126357671275862
mp-1186110,NpAlO3,0.0,-9.598500292,-3.2910525867500002
mp-1185841,MgAlO3,0.0,-6.581299996,-2.537314224
mp-1206367,Ce3AlO,0.0,-6.7061688660000005,-1.405291576999998
mp-1206753,AlFe3O,0.0,-6.277973040000001,0.542747052999999
mp-1206996,La3AlO,0.0,-6.174222742,-1.473911112000002
mp-1421498,AlFeO3,0.0,-6.574422203999999,-1.162526192999999
mp-1421511,AlSbO3,0.0,-5.814324374,-1.270632357
mp-1399724,MnAlO3,0.0,-6.980929322,-1.430634494586207
mp-1413511,AlBiO3,0.0,-5.384721585999999,-0.8888229550000001
mp-1395974,AlVO3,0.0,-7.286648706000001,-1.751975723000001
mp-1416557,AlNiO3,0.0,-5.768405216,-0.8944861109999991
mp-1417649,AlWO3,0.0,-7.760853983999999,-1.451336168999998
mp-1418444,AlAgO3,0.0,-4.537316028,-0.250836723333333
mp-1504314,AlCuO3,0.0,-5.386731856,-0.848998753
mp-1435808,AlCoO3,0.0,-6.187918972,-1.043343859
mp-1475723,TiAlO3,0.0,-7.6660689259999995,-2.369078753666666
mp-14254,NdAlO3,2.863600000000001,-8.31650052,-3.644979264499999
mp-1426094,AlSnO3,0.0,-5.873238904,-1.353432764
mp-1433892,AlMoO3,0.0,-7.2902197,-1.403197909
mp-23080,AlBiO3,1.585999999999999,-6.928135245999999,-2.432236615
mp-5323,CeAlO3,0.0,-8.508505242,-3.603223498999999
mp-5304,LaAlO3,3.4924,-8.424506328,-3.719413138
mp-758371,YbAlO3,0.0,-15.753361766000001,-3.5196541210000003
mp-8218,PrAlO3,2.8792,-8.314810974,-3.637824913333332
mp-972367,UAlO3,0.0,-9.212781082,-3.236607310999998
mp-972066,ZrAlO3,0.0,-8.373685417999999,-2.946253523
mp-973892,EuAlO3,0.0,-9.0909795,-3.315465348000001
mp-975427,RbAlO3,0.0,-5.839371856,-1.9253732725
mp-978862,SrAlO3,0.0,-7.088056108000001,-3.031678721000001
mp-984723,DyAlO3,2.9483,-8.25859651,-3.617029635333332
mp-1084785,KAlO2,2.9467,-6.536745085,-2.843528194312499
mp-1262424,Ti2AlO4,0.0,-8.789202672142856,-3.170859260238094
mp-1255006,Al(SnO2)2,0.0,-6.4570086149999995,-1.94892810642857
mp-1401503,Al(CuO2)2,0.0,-6.201220927857142,-1.667530472142856
mp-14105,AlTlO2,2.196999999999999,-6.43268022625,-2.429437737083335
mp-14070,RbAlO2,3.3716,-6.516673679999999,-2.861165701874999
mp-1402814,Mn2AlO4,0.0,-8.408214089285716,-2.428006884408868
mp-14069,CsAlO2,4.273499999999999,-6.4840235625,-2.846654709913793
mp-1442788,Al(CoO2)2,0.0,-7.353956197857143,-1.953348585
mp-19456,AlV2O4,0.0,-8.669679220714286,-2.7117889364285723
mp-505623,Al(FeO2)2,0.0,-7.999810410714285,-2.2173158007142852
mp-756851,AlCr2O4,0.0,-8.611058893571428,-2.490556780714286
mp-768600,Al(NiO2)2,0.0,-6.9256263350000005,-1.911670162142856
mp-674463,AlHO2,4.721100000000001,-6.68157388625,-2.4224078165625
mp-667363,AlPO4,5.5568,-7.93171886013889,-3.106236630912699
mp-1214833,AlBrO,3.0144,-6.026628945833333,-2.583134489166666
mp-1214837,AlIO,1.6572,-5.676203638333334,-2.270353821666667
mp-554273,AlPO4,5.6342,-7.933290584791666,-3.107808355565475
mp-23807,AlHO2,5.6572,-6.870298835,-2.6111327653125
mp-11794,AlAgO2,0.825199999999999,-6.36159773125,-2.240488851666666
mp-21216,AlFeO3,1.9962,-7.9347613565,-2.5228653455
mp-772187,AlGaO3,3.4263999999999992,-7.14254157675,-2.81903060325
mp-772898,AlGaO3,3.5313,-7.143614212,-2.820103238499999
mp-9212,NaAlO2,3.7968,-6.674976486875,-2.929171832219827
mp-557362,AlPO4,5.7275,-7.935960773472222,-3.110478544246031
mp-1178155,La3AlO6,4.2016,-8.616323513499998,-3.792187195999999
mp-1258775,MnAlO3,0.9551000000000001,-8.093744239333333,-2.54344941191954
mp-1337126,Al(CuO2)3,0.0,-5.3361595735,-0.7630633865
mp-625054,AlHO2,5.1403,-6.90462150625,-2.6454554365625
mp-667310,AlPO4,5.55,-7.9238055225,-3.09832329327381
mp-754979,Y3AlO6,4.6014,-9.1199802675,-3.823918631500001
mp-768573,Lu3AlO6,4.551399999999999,-8.631999588,-3.932159165999999
mp-675254,AlPO4,5.352399999999999,-7.934380828888887,-3.108898599662696
mp-1261047,AlSbO3,3.9107000000000003,-7.070983868499999,-2.527291851499999
mp-1247827,AlHO2,0.11129999999999901,-3.8765516425,0.38261442718749905
mp-558056,AlPO4,5.648,-7.935257286333334,-3.109775057107143
mp-5724,AlPO4,5.4878,-7.945130696666666,-3.119648467440476
mp-626074,Al(HO)3,4.614999999999999,-6.133351957321429,-2.022643648571428
mp-626631,Al(HO)3,3.8335999999999992,-6.086861112321428,-1.976152803571428
mvc-11882,Al(CuO2)3,0.0,-5.4246250855,-0.851528898499999
mp-675771,AlPO4,1.1036,-7.616577048333334,-2.791094819107143
mp-1019510,AlPO4,5.4907,-7.935445995104167,-3.109963765877976
mp-557842,AlPO4,5.4928,-7.934593116833333,-3.109110887607142
mp-1274278,AlV2O4,0.11869999999999901,-8.714152932142857,-2.756262647857142
mp-557915,AlPO4,5.4597,-7.938860529722222,-3.11337830049603
mp-1078520,AlHO2,5.9138,-6.8605885650000005,-2.6014224953125
mp-27863,AlClO,5.593999999999999,-6.2992144366666665,-2.785187891666666
mp-7535,Li5AlO4,4.795,-5.801112556,-2.492909137666666
mp-1239228,AlAgO2,0.252,-6.095074809453124,-1.97396592986979
mp-752394,AlTeO4,0.0,-6.648228598749999,-2.201440974861111
mp-8898,TaAlO4,3.282,-9.31202122125,-3.411296655805555
mp-1215024,AlAsO6,0.43770000000000003,-6.12207357921875,-1.3591405301562491
mp-1214957,AlPO6,0.21549999999999903,-6.70235599328125,-1.846254070111607
mp-13998,Na5AlO4,2.6242,-5.096013453875,-2.071411079564654
mp-15960,Li5AlO4,4.662000000000001,-5.804406398374999,-2.496202980041666
mp-5440,AlPO4,5.787199999999999,-7.933958767638889,-3.108476538412698
mp-5525,KAlO2,3.999399999999999,-6.6026186804687494,-2.909401789781249
mp-561027,AlPO4,5.6667000000000005,-7.933949762499999,-3.108467533273808
mp-626605,Al(HO)3,4.7793,-6.129233651964285,-2.018525343214286
mp-683883,AlPO4,5.7938,-7.92816557984375,-3.102683350617559
mp-1046804,AlWO3,0.8598999999999991,-8.653441592,-2.343923776999999
mp-1178550,AlInO3,0.0,-6.9170019495,-2.647275431833333
mp-1187025,SmAlO3,4.0771,-8.354219320999999,-3.692610324999999
mp-1193404,Al(HO)3,5.7600999999999996,-6.089332101428572,-1.978623792678572
mp-1199363,Ba3AlO4,0.0,-6.6067485084375,-2.944955424687499
mp-1204923,Al(SO6)2,0.0,-5.644984245000001,-0.88512911
mp-1253488,AlAgO3,0.062200000000000005,-6.0475763135,-1.761097008833333
mp-1248251,AlVO3,1.679199999999999,-8.363604847500001,-2.8289318645000012
mp-1254277,AlFeO3,1.3295,-7.6984840205000005,-2.286588009499999
mp-1291152,AlV2O4,0.41080000000000005,-8.6873318525,-2.729441568214286
mp-1280023,AlV2O4,0.3682,-8.686651115714286,-2.728760831428571
mp-1247828,AlOF,5.2551,-7.136486179444445,-3.600689776111111
mp-1347317,AlCuO3,0.0,-6.495386937499999,-1.957653834499999
mp-1345463,AlCrO3,1.802899999999999,-8.3687851905,-2.7202839275
mp-1344602,AlBiO3,0.9480000000000001,-6.8149549075,-2.3190562765
mp-1343733,AlAgO3,0.032,-6.0240798,-1.7376004953333322
mp-1371447,AlSbO3,0.0,-6.792968174499999,-2.249276157499999
mp-1373731,AlMoO3,1.4177,-8.3337379745,-2.4467161835
mp-1368992,MnAlO3,0.5506000000000001,-8.122675318,-2.572380490586207
mp-1376903,AlNiO3,0.0,-6.886995670499999,-2.013076565499999
mp-1378752,AlCoO3,0.0,-7.303829901499998,-2.159254788499999
mp-21455,EuAlO3,0.0,-9.0998939205,-3.324379768500001
mp-3792,YAlO3,5.5402000000000005,-8.7319481845,-3.7122381155
mp-4471,ScAlO3,4.591900000000001,-8.654007197,-3.669621607
mp-4434,TbAlO3,5.598200000000001,-8.3851686665,-3.739704172833333
mp-4891,HoAlO3,5.8359000000000005,-8.389978277500001,-3.752550615499999
mp-5223,GdAlO3,3.2382,-10.2235662665,-3.6904500495
mp-625404,AlHO2,5.495400000000001,-6.901292347499999,-2.642126277812499
mp-625420,AlHO2,4.8339,-6.8779945725000005,-2.6188285028125
mp-625152,AlHO2,5.546000000000001,-6.911991651875,-2.6528255821875
mp-7405,SmAlO3,4.861399999999999,-8.359403766499984,-3.697794770499984
mp-755574,LuAlO3,6.091399999999999,-8.406215403500001,-3.783986143833334
mp-756082,AlVO3,0.0,-8.4287792535,-2.894106270500001
mp-756281,TmAlO3,6.078899999999999,-8.390336423499999,-3.775944358500001
mp-756458,ErAlO3,6.0359,-8.394795851499998,-3.763360320499997
mp-756630,DyAlO3,5.723000000000001,-8.38752288,-3.745956005333332
mp-756686,AlGaO3,3.0761,-7.063751335000001,-2.740240361500001
mp-768538,Mn2AlO4,0.0,-8.463634338928573,-2.483427134051725
mp-768539,AlTlO3,1.208199999999999,-6.3803607985,-2.188174606166668
mp-776167,CeAlO3,0.0,-8.522544917000001,-3.617263174
mp-776154,AlFeO3,2.1089,-7.898401108,-2.486505096999999
mp-1248327,TiAlO3,0.0,-8.424581771666668,-3.127591599333334
mp-13024,AlPO4,4.970000000000001,-7.839401923333333,-3.013919694107142
mp-756850,LuAlO3,3.711999999999999,-8.328935587333334,-3.706706327666666
mp-756705,YAlO3,4.3247,-8.690346495666667,-3.6706364266666682
mp-768518,LaAlO3,4.6067,-8.374345489333331,-3.669252299333332
mp-1182867,AlWO4,2.980299999999999,-8.765301039999999,-2.682709359999999
mp-603719,AlPO4,2.9478,-7.585159261666667,-2.759677032440476
mp-676861,AlSbO4,1.6178,-7.154437081666667,-2.5433669
mp-675172,TaAlO4,1.8382,-9.233514985,-3.332790419555555
mp-753658,AlCrO4,0.0,-7.917283009999999,-2.385538456666667
mp-626467,Al(HO)3,4.0092,-6.102186165,-1.99147785625
mp-626073,Al(HO)3,4.5901,-6.094531883214286,-1.9838235744642851
mp-626587,Al(HO)3,4.8222000000000005,-6.130316908749999,-2.0196086
mp-1045403,Ti2AlO4,0.0,-8.630107557142857,-3.011764145238094
mp-1045494,AlV2O4,0.0,-8.606648155,-2.648757870714285
mp-1045504,Al(NiO2)2,0.1428,-6.836147715,-1.822191542142856
mp-1045538,AlV2O4,0.41579999999999906,-8.515571607857144,-2.557681323571429
mp-1080060,LaAlO3,3.7121,-8.427559752999999,-3.722466562999999
mp-1281387,AlV2O4,0.2716,-8.722876605,-2.764986320714285
mp-1293197,Al(FeO2)2,1.0647,-8.016943589285713,-2.234448979285713
mp-19843,CeAlO3,0.0,-8.525620271,-3.620338527999999
mp-753184,Al(CoO2)2,0.0,-7.456374292857142,-2.05576668
mp-1199762,AlPO4,5.6196,-7.915495243148149,-3.090013013921957
mp-558088,AlPO4,5.6341,-7.920505920462964,-3.095023691236772
mp-626497,Al(HO)3,4.697299999999999,-6.133753347857143,-2.023045039107142
mp-765647,AlVO3,1.1677,-8.4264897375,-2.8918167545
mp-852009,NbAlO4,2.6096999999999992,-8.781597074583333,-3.175142926249999
mp-7848,AlPO4,5.669599999999999,-7.945920991666667,-3.120438762440476
mp-7849,AlAsO4,4.2634,-7.1442605966666655,-2.443003532916666
mp-1395354,Ti2AlO4,0.0,-8.452462385,-2.834118973095237
mp-1248448,Al(FeO2)2,0.0,-7.617981648571429,-1.835487038571428
mp-1252148,Al(CuO2)2,0.0,-6.152437421428571,-1.618746965714285
mp-1258376,Mn2AlO4,0.0,-8.081133253571428,-2.100926048694582
mp-1406186,Al(NiO2)2,0.0,-6.53065507,-1.516698897142855
mp-1262087,Al(BiO3)3,0.19010000000000002,-6.19033300423077,-1.5790000961538482
mp-35893,KAlO,0.1768,-4.943829805833333,-1.668860953249999
mp-540549,Al(PO3)3,5.8053,-7.783721017948717,-2.820363675558607
mp-12807,KAlO2,4.5623000000000005,-6.5951474910937495,-2.9019306004062493
mp-3427,LiAlO2,4.5899,-6.970488158125,-3.082882981458333
mp-1042600,TaAl(WO4)2,1.1360000000000001,-9.245802750000001,-2.486431760611111
mp-1041835,AlSn(WO4)2,1.1757,-8.283032979166666,-2.178441630416666
mp-1041643,AlSb(WO4)2,1.6412,-8.276815550833334,-2.162271753333333
mp-1041713,AlCr(WO4)2,1.8844999999999992,-8.898473255833332,-2.323592272499999
mp-1047748,TiAl(WO4)2,1.3868,-8.942254440833333,-2.5138364119444443
mp-1047560,AlFe(WO4)2,2.3215,-8.70186340875,-2.225567947083334
mp-1047580,AlMo(WO4)2,2.3592,-8.8914676675,-2.217203130833333
mp-1047724,AlCo(WO4)2,0.028299999999999003,-8.5405040025,-2.175592248333333
mp-1048504,Ba2AlFe3O7,0.34830000000000005,-7.387802513076922,-2.185547407307691
mp-1219548,RbTi3AlO8,2.5876,-8.547763139230769,-3.317280524423077
mp-1219794,Rb5Al(MoO4)4,2.046599999999999,-7.203642438076924,-2.157556949134616
mp-1221447,Na2AlGe7O16,0.0,-6.733186864615384,-2.196356539529177
mp-1221220,Na4AlFe3O8,2.355699999999999,-6.67618663,-2.044548466594827
mp-1223316,KTi3AlO8,2.5699,-8.566759496153846,-3.32467413901923