Material_ID,Formula,Band_Gap,Energy_per_Atom,Formation_Energy_per_Atom
mp-2713064,Na6Hf4Zr4Si7S5O48,3.084699999999999,-8.080462562297297,-2.969097216361837
mp-2713048,Na6La4Nb4Si7S5O48,1.9393,-7.738309694594595,-2.814380971091566
mp-2713046,Na6Ta4In4Si7S5O48,2.4424,-7.489222381396397,-2.587521271893368
mp-2713028,Na6Ta4Al4Si7S5O48,2.2836,-7.730290127477478,-2.775269986262737
mp-2713062,Na6Sc4Nb4Si7S5O48,1.6260999999999992,-7.811277290990991,-2.8118641350555302
mp-2713032,Na6Y4Nb4Si7S5O48,1.763,-7.831164130225226,-2.8222038178032793
mp-2713088,Na6Ti4Si7Ge4S5O48,1.7962,-7.331537299144144,-2.543759509334809
mp-2714061,Na10Zn2Si7Sn6S5O48,1.6086,-6.619594043675214,-2.3097827818328183
mp-2714100,Na10Sc6Ta2Si7S5O48,2.9659,-7.620397245769231,-2.8599225048841
mp-2714127,Na10Ta4Zn4Si7S5O48,1.8701,-7.134124396965812,-2.491880234345639
mp-2714131,Na10Hf6Mg2Si7S5O48,3.721899999999999,-7.653414850897436,-2.876588770337092
mp-2714167,Na10Zn2Si7Ge6S5O48,1.4039000000000001,-6.6366618254273515,-2.279661640508032
mp-2714174,Na10La4Si7Ge4S5O48,1.1153,-6.987193696239316,-2.527905235807177
mp-2714168,Na10Hf4Ga4Si7S5O48,3.2628999999999992,-7.301091373119658,-2.6660977797388012
mp-2715523,Na14Ca4Zr4Si7S5O48,2.9514,-7.13372463995935,-2.778011893274111
mp-2715524,Na2Sc2Ta6Si7S5O48,2.5195,-8.34771709657143,-2.880272849275123
mp-2715527,Na2Ta6In2Si7S5O48,2.3824,-8.091360478952382,-2.726010384846552
mp-2715536,Na14Ca4Si7Sn4S5O48,1.5903,-6.627365017479676,-2.49302440616029
mp-2715537,Na2Nb4Si7Sn4S5O48,1.6261,-7.594214638238095,-2.518527475027505
mp-2715548,Na14Al4In4Si7S5O48,0.7892999999999991,-6.6494077654065045,-2.491185308314761
mp-2715553,Na2Ta4Si7Sn4S5O48,2.203,-7.757869041666668,-2.5812891640179823
mp-2715560,Na14Mg4Ti4Si7S5O48,1.5579,-6.98831817195122,-2.682719497379802
mp-2715575,Na14Mg4Zr4Si7S5O48,2.6644,-7.061019290609757,-2.723605561729395
mp-2715576,Na14Hf4Zn4Si7S5O48,3.134699999999999,-7.000075803170732,-2.6119907574611023
mp-2715574,Na2Y2Nb6Si7S5O48,1.9098000000000002,-8.106814599476191,-2.785663069694171
mp-2715594,Na2Nb6Ga2Si7S5O48,1.9197000000000002,-7.8611848606190495,-2.639490344479886
mp-2715589,Na2Zr4Nb4Si7S5O48,1.6432000000000002,-8.178823122904763,-2.843814315408457
mp-2715591,Na2Sc2Nb6Si7S5O48,1.8661,-8.097907350666667,-2.7818021750275053
mp-2715595,Na14In4Ga4Si7S5O48,2.065299999999999,-6.465295968821139,-2.342072526729395
mp-2715605,Na2Y2Ta6Si7S5O48,2.5092,-8.356358714761905,-2.883868113322743
mp-2715604,Na14Y4Al4Si7S5O48,3.2931,-7.088136122276423,-2.746990847786305
mp-2715613,Na14Al4Ga4Si7S5O48,3.2196,-6.690369067601627,-2.519028450550533
mp-2715614,Na2Hf4Nb4Si7S5O48,1.5441999999999991,-8.299131098,-2.883580096217981
mp-2715622,Na2Ta4Ti4Si7S5O48,2.012499999999999,-8.242579772428572,-2.843947314113218
mp-2715625,Na14Zn4Si7Sn4S5O48,1.756999999999999,-6.401487640243903,-2.303530261607443
mp-2715631,Na14La4Al4Si7S5O48,3.2347,-6.991735154552845,-2.7273257042090693
mp-2715641,Na14Sc4In4Si7S5O48,2.8424,-6.864810977357724,-2.580398604412322
mp-2715657,Na14Ca4Ti4Si7S5O48,1.4925000000000002,-7.046752238170733,-2.722854545794436
mp-2715659,Na14La4Ga4Si7S5O48,2.969299999999999,-6.820516021504066,-2.591105586160289
mp-2715655,Na14Mg4Si7Ge4S5O48,1.2697999999999992,-6.582173357032521,-2.436207080591184
mp-2715667,Na2La2Ta6Si7S5O48,2.5212,-8.300697912333334,-2.873152579322743
mp-2715661,Na14Zr4Zn4Si7S5O48,2.9175,-6.898678175813009,-2.579348661810696
mp-2715674,Na2Hf4Ta4Si7S5O48,2.2451,-8.462533605190478,-2.946089888970363
mp-2715672,Na14Zn4Si7Ge4S5O48,1.530999999999999,-6.415576969878049,-2.28769490831476
mp-2715686,Na14Ca4Hf4Si7S5O48,3.2961,-7.232057125528455,-2.8075888471358983
mp-2715688,Na2Zr4Ta4Si7S5O48,2.4188,-8.342253646952381,-2.906352125017981
mp-2715708,Na2Ta4Si7Ge4S5O48,2.174699999999999,-7.768644872285715,-2.5570103660656
mp-2715782,Na2Nb6In2Si7S5O48,1.8697,-7.84342679304762,-2.629415770598934
mp-2715785,Na2La2Nb6Si7S5O48,1.9397000000000002,-8.053967772142858,-2.77776151078941
mp-2715817,Na14Y4Ga4Si7S5O48,2.9959,-6.910836763780488,-2.604690504290372
mp-2715836,Na10Hf4Sc4Si7S5O48,3.8409999999999993,-7.721181310598291,-2.916732687345638
mp-2715837,Na10In4Si7Ge4S5O48,2.050799999999999,-6.6402063545726495,-2.29255037422598
mp-2715846,Na10Ti4Al4Si7S5O48,1.874,-7.304381019615385,-2.7383216419182883
mp-2715781,Na14Hf4Mg4Si7S5O48,3.3705,-7.16465753300813,-2.758488272420451
mp-2715895,Na10Ta2In6Si7S5O48,2.1113,-6.934139927478633,-2.448534060567861
mp-2715826,Na10Hf4In4Si7S5O48,3.0218,-7.266611360897436,-2.645408653627689
mp-2715721,Na14La4Sc4Si7S5O48,3.4764,-7.221725388617886,-2.831126022420451
mp-2715723,Na14Sc4Ga4Si7S5O48,3.2713,-6.9061887975609775,-2.608658264656224
mp-2715757,Na14Mg4Si7Sn4S5O48,1.6863000000000001,-6.5633153598780485,-2.447273766363541
mp-2715759,Na14Ti4Zn4Si7S5O48,1.5274,-6.823885784756098,-2.536371325062729
mp-2715750,Na14La4Y4Si7S5O48,3.39,-7.240250552642277,-2.841035459859476
mp-2715773,Na2Nb4Si7Ge4S5O48,1.7325,-7.601832321761905,-2.491090529979886
mp-2715947,Na10Ga4Si7Ge4S5O48,1.7498,-6.679235537136752,-2.317788670678971
mp-2715988,Na10Ca2Hf6Si7S5O48,3.632799999999999,-7.6867097474358985,-2.900264952388373
mp-2715801,Na2Nb6Al2Si7S5O48,1.8355000000000001,-7.968854184142858,-2.726660244932267
mp-2715922,Na10Al4Si7Ge4S5O48,1.9059,-6.879969568119659,-2.481728865379827
mp-2715933,Na10La4Hf4Si7S5O48,3.4721,-7.618980527478633,-2.886145340123416
mp-2716017,Na10Mg2Si7Sn6S5O48,1.6776,-6.716052592008547,-2.39673552490974
mp-2715945,Na10Nb4Zn4Si7S5O48,1.2808000000000002,-6.990403502264958,-2.43870408337128
mp-2715968,Na10Y4Si7Sn4S5O48,1.5014999999999992,-7.100074368888889,-2.591574195892647
mp-2715763,Na14Sc4Al4Si7S5O48,3.565699999999999,-7.087741728699187,-2.755212180794435
mp-2715884,Na10Y4Si7Ge4S5O48,1.598799999999998,-7.092854746581197,-2.552895291533673
mp-2715912,Na10Ca2Si7Ge6S5O48,1.2321,-6.752527459786326,-2.376402755123417
mp-2716002,Na10Nb2Ga6Si7S5O48,2.3735,-6.918778827179487,-2.457759002965297
mp-2715762,Na14Ca4Si7Ge4S5O48,1.2381,-6.642813946219513,-2.478548651973298
mp-2715780,Na14Y4In4Si7S5O48,2.8618,-6.882069114715448,-2.589041015184679
mp-2715787,Na2Ti4Nb4Si7S5O48,1.860399999999999,-8.076937925904762,-2.779198182027505
mp-2715957,Na10Ti4In4Si7S5O48,1.5112,-7.061863024658121,-2.546388369354185
mp-2715879,Na10Sc6Nb2Si7S5O48,2.2033,-7.547209811965812,-2.832007442943929
mp-2715813,Na2Ta6Al2Si7S5O48,2.5425999999999993,-8.220785197190477,-2.8272521863227422
mp-2715816,Na14Y4Sc4Si7S5O48,3.5231,-7.311789405325204,-2.844454214981427
mp-2715832,Na10Sc4Ti4Si7S5O48,1.7392,-7.524659890512821,-2.82593931922598
mp-2716014,Na10Zr4Ga4Si7S5O48,3.0919,-7.186382708846154,-2.623670571875553
mp-2715970,Na10Hf4Al4Si7S5O48,3.901,-7.48658408974359,-2.814796660080682
mp-2715822,Na10Y6Ta2Si7S5O48,2.8846,-7.637922721111111,-2.863861642149056
mp-2715831,Na10Ti4Ga4Si7S5O48,1.8131,-7.109151150427351,-2.579885609012306
mp-2716019,Na10Ti6Zn2Si7S5O48,1.7805,-7.271774728760684,-2.663046531405468
mp-2716022,Na10Al4Si7Sn4S5O48,2.327,-6.855745293205129,-2.488963872516579
mp-2715874,Na10Zr4In4Si7S5O48,2.9468,-7.159786602264957,-2.610865351405468
mp-2715882,Na10Ca4Ta4Si7S5O48,1.6491,-7.357151571367521,-2.676658369260169
mp-2715888,Na10Y4Ti4Si7S5O48,1.533599999999999,-7.523226319188034,-2.815448189183246
mp-2716025,Na10Mg4Ta4Si7S5O48,1.8718,-7.314651961495727,-2.6533961883627333
mp-2716065,Na10La4Zr4Si7S5O48,2.7817,-7.522328980256411,-2.861775249311451
mp-2715899,Na10Hf6Zn2Si7S5O48,3.673,-7.564201525598292,-2.796881250294357
mp-2715927,Na10Sc4Si7Sn4S5O48,1.834099999999999,-7.089853311452992,-2.590410697174699
mp-2715938,Na10Ga4Si7Sn4S5O48,2.1873,-6.6681097557692315,-2.338122171362733
mp-2715776,Na2Ta6Ga2Si7S5O48,2.629,-8.114490799761905,-2.7414572119655993
mp-2715818,Na14La4In4Si7S5O48,2.5672,-6.785381626626016,-2.56908935124159
mp-2715928,Na10Mg2Ti6Si7S5O48,1.6672,-7.3623366179914544,-2.744102615379827
mp-2715930,Na10Zr6Zn2Si7S5O48,3.09,-7.401996943461539,-2.743098852772989
mp-2715961,Na10Zr4Sc4Si7S5O48,3.2560000000000002,-7.6135869364102575,-2.881419769567861
mp-2716087,Na10Mg2Si7Ge6S5O48,1.4089,-6.73136165371795,-2.364855663542219
mp-2716099,Na10Zr4Al4Si7S5O48,3.386999999999999,-7.372197349829061,-2.7726913765764083
mp-2716104,Na10La6Ta2Si7S5O48,2.9565,-7.502375711880342,-2.849321124841365
mp-2716097,Na10Ca2Zr6Si7S5O48,3.0462,-7.528717816538462,-2.850695206106323
mp-2716112,Na10Ta2Al6Si7S5O48,2.9483,-7.281053209572651,-2.719570259072135
mp-2715847,Na10Ca4Nb4Si7S5O48,1.068499999999999,-7.212312520128205,-2.622364061747348
mp-2715855,Na10Ca2Ti6Si7S5O48,1.8249,-7.392708366452991,-2.764855649354185
mp-2716023,Na10Y4Zr4Si7S5O48,3.0187,-7.626858409914531,-2.885633684354186
mp-2716029,Na10Ca2Si7Sn6S5O48,1.2955,-6.7420754904700875,-2.4131397088841
mp-2716090,Na10Y4Hf4Si7S5O48,3.6306000000000003,-7.727877151581197,-2.9143709696105953
mp-2715865,Na10Nb2In6Si7S5O48,2.1976,-6.856601784145299,-2.416268289097776
mp-2715875,Na10Mg4Nb4Si7S5O48,1.2703,-7.167794134615385,-2.597083105208887
mp-2716102,Na10Mg2Zr6Si7S5O48,3.1051,-7.4969582529059835,-2.828554356961024
mp-2716039,Na10In4Si7Sn4S5O48,1.6843,-6.63263417491453,-2.316437476619143
mp-2716052,Na10Ta2Ga6Si7S5O48,2.9958,-6.989753917478633,-2.483461721401195
mp-2716109,Na10Y6Nb2Si7S5O48,2.1673,-7.568641117478632,-2.839852410379826
mp-2715919,Na10Sc4Si7Ge4S5O48,1.6853,-7.094098513333334,-2.563196617003759
mp-2715926,Na10La4Si7Sn4S5O48,0.9450000000000001,-6.980577735555555,-2.552748557174698
mp-2715965,Na10Nb2Al6Si7S5O48,2.144,-7.204719620769231,-2.688509042131963
mp-2715966,Na10La4Ti4Si7S5O48,1.4423,-7.412444734615385,-2.78533759922598
mp-2715973,Na10La6Nb2Si7S5O48,2.1063,-7.426394797606838,-2.818612582431109
mp-728519,K2NaCa2TiSi7O20,0.026499999999999004,-4.252761332575758,0.366862858660223
mp-1199188,Ti2Si7H42C14(Cl3O)2,1.496,-5.253726595821917,-0.5064161912214611
mp-1202315,TiSi7H42C14(ClO)2,2.4531,-5.246382899558823,-0.37485318074754903
mp-42583,Na8BeAl4Si7(ClO12)2,3.9831000000000003,-7.11685401326087,-2.989009533609445
mp-43188,Na8BeAl4Si7(BrO12)2,3.883899999999999,-7.092146430652173,-2.9735015216529233
mp-1221134,NaCa2Mg5AlSi7(O11F)2,4.6631,-7.521270464,-3.323497476159482
mp-734213,K2NaCa2TiSi7HO20,0.0,-4.190784737794118,0.39282599013345104
mp-720410,K2NaCa2TiSi7HO20,3.4517,-7.7204345879411775,-3.136823860013608
mp-1210262,Na4Ca4Be4AlSi7(O6F)4,0.0,-7.3352709075,-3.2420165376149432
mp-1218127,Tl32Si8O37,0.7955000000000001,-5.575519123506493,-1.64871121235931
mp-1197410,Mg5(Si4O15)2,0.020599999999999,-6.836494682325582,-2.185477834302326
mp-1210834,Mg7(SiO3)8,0.22060000000000002,-7.544474454102565,-3.094041160128205
mp-1212736,Fe7(SiO3)8,0.34179999999999905,-8.27206866128205,-2.594023614358973
mp-554033,Na6Si8O19,4.611,-7.369584616212122,-2.96158073722048
mp-669333,Ba5Si8O21,4.3763,-7.983718731764704,-3.368877553970587
mp-555465,La10Si8O3,0.0,-6.560966622857142,-1.436847655952381
mp-555617,Ce10Si8O3,0.0,-6.96156256095238,-1.360804182142855
mp-1233496,Mg(SiO2)8,2.322,-8.0282526332,-3.0602370198
mp-1204853,Mg5(Si4O15)2,0.0,-6.607556926744186,-1.9565400787209302
mp-1180530,Mg5(Si4O15)2,0.0,-6.598650721860465,-1.947633873837208
mp-729062,Mg7(SiO3)8,0.2745,-7.545715371666666,-3.095282077692307
mp-1214355,Ca(SiO2)8,0.5343,-8.0238743918,-3.0408535838
mp-1197746,NaSi8H7O20,4.2768,-7.244628653333333,-2.592693925836926
mp-1227202,CaAl4(SiO3)8,0.0,-7.811808995675676,-2.970146521081081
mp-1227274,CaMg7(SiO3)8,4.6611,-7.63308738625,-3.243774927625
mp-1227744,Ca3Mg5(SiO3)8,4.7346,-7.71380823075,-3.305739278875
mp-1228280,Ca2Al4Si8O33,0.2019,-7.111018088936171,-2.30934233393617
mp-1228717,Ca13Nb3(Si2O9)4,0.37560000000000004,-8.0236195705,-3.3918553375
mp-1234076,MgMn4(Si4O11)2,0.693499999999999,-8.337688368285713,-2.893796438763546
mp-1234313,K8Mg(SiO3)8,0.010099999999999,-6.78184930195122,-2.566360615195122
mp-1234312,K8Mg(SiO3)8,0.027299999999999002,-6.7801121312195125,-2.564623444463415
mp-1234472,K8Mg(SiO3)8,0.0,-6.758513569512195,-2.543024882756098
mp-1234983,MgMn4(Si4O11)2,0.7781,-8.323371402,-2.879479472477832
mp-2220402,MgMn4(Si4O11)2,0.6989999999999991,-8.283230282,-2.839338352477831
mp-707521,Mg16Si8HO32,0.0,-7.077581294210526,-3.021090363004385
mp-707516,Mg16Si8HO32,0.0,-7.096492663859649,-3.040001732653509
mp-707519,Mg16Si8HO32,0.0,-7.151082310175438,-3.094591378969298
mp-733817,Mg16Si8HO32,0.0,-7.146010185087719,-3.089519253881579
mp-757077,Li2Cu2Si8O19,0.0,-7.610869826451613,-2.790545232634409
mp-758493,Li2Fe2Si8O19,3.286299999999999,-8.013197480967742,-2.910884852311827
mp-767753,Li2Fe2Si8O19,3.508099999999999,-7.987796072580645,-2.88548344392473
mp-1224857,KCa2(SiO3)8,0.0,-7.085030347142857,-2.305139551635713
mp-14885,Rb2Cu2Si8O19,0.6588,-7.624184757741935,-2.86375621516129
mp-556177,Cs2Cu2Si8O19,0.7552000000000001,-7.624437283548387,-2.868689805622913
mp-1329473,CaCr2(Si2O5)4,1.557799999999999,-8.305008752419356,-3.025219747258065
mp-1330795,CaCu2(Si2O5)4,1.2839,-7.763301110645162,-2.841824415161291
mp-1129406,Ca2Mg5(SiO3)8,0.017300000000000003,-7.634232492820513,-3.164561769871795
mp-1198125,Ca2Al4Si8O33,0.25520000000000004,-7.094247521914894,-2.292571766914893
mp-1200127,Ca2Al4Si8O33,0.015000000000000001,-7.155563810212765,-2.353888055212765
mp-1203564,Ca2Al4Si8O33,0.30510000000000004,-7.109052452127661,-2.30737669712766
mp-1222203,Na16Ti7(SiO5)8,0.0378,-7.306984347183097,-2.827308839935242
mp-1237404,Ca2Mg5(SiO3)8,0.754999999999999,-7.420501562307693,-2.950830839358974
mp-581263,Sr13Al6Si8O,0.0,-3.897861477142857,-0.5826641416071421
mp-1201366,Na4SrSi8O23,0.11180000000000001,-7.073004371527777,-2.51008885598659
mp-553982,K4In2Si8O21,3.8373,-7.429306872,-2.933491108495237
mp-728690,Si8BNO18,0.0,-8.073340434285715,-2.806072154077381
mp-1019746,K2Ca4Si8O21,4.594,-7.790407455428572,-3.287697046557144
mp-1226910,CsNb2(SiO3)8,0.0,-8.028315406285714,-2.792195520275862
mp-1234803,MgMn4(Si4O11)2,0.30669999999999903,-8.317870258285714,-2.8739783287635463
mp-1234643,MgMn4(Si4O11)2,1.2136,-8.224861228,-2.780969298477833
mp-1233949,MgMn4(Si4O11)2,1.253699999999999,-8.29502421342857,-2.851132283906403
mp-2220263,MgMn4(Si4O11)2,0.9977,-8.234514694,-2.790622764477832
mp-542121,Rb4Nb2Si8O23,3.7154,-7.996834189729729,-3.096012737702703
mp-542100,K4Nb2Si8O23,3.793999999999999,-8.007417884594593,-3.090289875783783
mp-555696,Cs4Nb2Si8O23,3.700199999999999,-7.9897936240540535,-3.096816118205963
mp-650601,K4Nb2Si8O23,3.7937000000000003,-8.00675215264865,-3.0896241438378382
mp-24784,Mg16Si8HO32,0.0,-7.109489110877193,-3.052998179671053
mp-1219801,Rb2V2Si8O21,2.913299999999999,-8.119463022121211,-3.045565881818182
mp-773046,Mg4Sc3(SiO3)8,0.0,-8.109587335897436,-3.297461804230769
mp-1178014,Li2Cu2Si8O19,0.26370000000000005,-7.6116362361290335,-2.791311642311828
mp-1197582,K2Ca2Si8O23,1.1323,-7.105707011714285,-2.434861681414285
mp-1222243,Mg2Fe5(SiO3)8,2.2768,-8.099089011794872,-2.77179018
mp-1228237,Ca2Al4Si8O31,0.059299999999999006,-7.192919999777778,-2.397745811444444
mp-559127,K2Zn2Si8O19,4.2227,-7.579131879354838,-2.99216316966129
mp-765416,Li2Fe2Si8O19,3.213199999999999,-8.015765618064517,-2.913452989408601
mp-1210841,Mn2Fe5(SiO3)8,1.8955000000000002,-8.369199026923075,-2.655667103996462
mp-559177,Mg7Si8(O11F)2,4.883,-7.57814247948718,-3.283304499871795
mp-1248719,Mg16Si8HO32,1.903699999999999,-7.164186943157894,-3.107696011951754
mp-541550,Mg16Si8HO32,0.0,-7.135618806666667,-3.079127875460527
mp-707515,Mg16Si8HO32,0.0,-7.093436793333334,-3.036945862127193
mp-555528,Ca2Th(Si2O5)4,4.986599999999999,-8.392547769032259,-3.431682531935484
mp-1173803,Na3CaFe4(SiO3)8,1.4038,-7.844007122916666,-2.7923957375201143
mp-1220801,NaLi3Fe4(SiO3)8,2.703999999999999,-7.8225843545,-2.745029790034483
mp-1221605,Na3Mg5Si8(HO8)3,3.8525,-7.219827479379845,-2.9287432913074722
mp-1222539,Li4Sc3In(SiO3)8,4.5756,-7.9992100525000005,-3.210563030375
mp-1222563,Li4Sc3In(SiO3)8,4.7120999999999995,-7.99956328825,-3.210916266125
mp-1223470,KNa7Al8(SiO4)8,4.3764,-7.469170982321429,-3.143718871373306
mp-1224578,K2MgFe(SiO3)8,0.7370999999999991,-7.239648115833333,-2.391958142763888
mp-1227644,Ca4Mg3Fe(SiO3)8,4.1563,-7.848502739,-3.260066760625
mp-1227080,Ca4Zn3Fe(SiO3)8,3.0625,-7.587204034499999,-3.026572536499999
mp-1227707,Ca4Co3Si8NiO24,3.1496,-7.88275921075,-2.948849342749999
mp-1228191,Ba3SrSi8(NO)8,3.9167,-7.964106556071428,-2.351899157857143
mp-1228666,Ba4Fe12Si8ClO35,1.7846000000000002,-8.001873422166666,-2.539442249583333
mp-1248247,Ca2Al4Si8H14O31,3.0675,-6.571724620677966,-2.108755661059321
mp-1252316,Na3CaFe4(SiO3)8,1.809899999999999,-7.659168126999999,-2.607556741603448
mp-42298,Na6Al4Fe(Si4O13)2,3.202499999999999,-7.57185899911111,-3.048477230850574
mp-677067,Ca3Al4Si8(ClO12)2,3.6088,-7.7590163251219515,-3.2017045046341472
mp-677246,Ba6Ti2Nb10Si8O51,2.6892,-8.78393364805195,-3.276577290021646
mp-743762,Ca2Al4Si8H14O31,2.8697,-6.536383255932204,-2.073414296313559
mp-766037,Li4ScFe3(SiO3)8,2.765399999999999,-7.938805399874999,-2.900509585833333
mp-775132,NaLi3Fe4(SiO3)8,2.5779,-7.823818289749999,-2.746263725284483
mp-1224714,KSr4Si8H17O29,4.2387,-6.710326356186441,-2.430456442177965
mp-1221115,NaCr12Si8BrO28,2.113799999999999,-8.6270817282,-2.611867941527586
mp-1223609,KCr12Si8BrO28,2.1822,-8.632930907599999,-2.621924142044999
mp-1223595,KCr12Si8ClO28,2.160999999999999,-8.639730527400001,-2.624491959345
mp-1221145,NaCr12Si8ClO28,2.1639,-8.638959959800001,-2.619514370627586
mp-1211019,Na3Mg5Si8(HO12)2,0.0,-7.257518783928571,-2.945103220872331
mp-1196550,Ca2Mg5Si8(HO12)2,4.8269,-7.574888081951219,-3.157632202134145
mp-1198876,KNa2Tb(SiO3)8,0.059300000000000005,-7.07572844,-2.336665016018758
mp-1214742,Ca2Al4Si8(W3O8)3,0.0,-8.141304435957448,-1.80576648893617
mp-39647,Na6Al4Fe(Si4O13)2,2.9163,-7.561608687555555,-3.038226919295018
mp-557662,Ca2Mg5Si8(O11F)2,5.1333,-7.665720763846155,-3.351645355256411
mp-818519,NaCa2Fe5(SiO3)8,0.5075000000000001,-8.044256504500002,-2.797840630784483
mp-708991,KCa4Si8H16O29,0.9972000000000001,-6.747274838965517,-2.430553362280172
mp-1181193,KCa4Si8O28F,0.2732,-6.980005059880953,-2.384455678982143
mp-707875,Mn9Al2Si8(HO4)8,2.8092,-7.924795099661017,-2.5205931132437183
mp-775021,NaLi3Fe4(SiO3)8,2.6971,-7.823639523750001,-2.746084959284483
mp-677080,K6Ba3Ta12(Si2O13)4,2.7942,-8.911850670123457,-3.286606347055556
mp-1218570,SrCa3Mg4(SiO3)8,4.9247,-7.747024349999999,-3.3374064462499993
mp-1221279,Na3LiGa4(SiO3)8,4.225899999999999,-7.36728572275,-2.862283781436782
mp-1221188,NaCa3Fe(SiO3)8,0.0,-7.504010831891891,-2.693682453821062
mp-1222575,Li4ScIn3(SiO3)8,3.9221,-7.5641621167499995,-2.954179862708334
mp-1227136,Ca4ZnFe3(SiO3)8,3.1671,-7.9356194665,-3.0144740885
mp-1220832,NaLi3Fe4(SiO3)8,2.7475,-7.82286858275,-2.745314018284483
mp-1221157,Na4Sc3In(SiO3)8,4.5797,-7.9185205637500005,-3.186593750429598
mp-1222629,Li4ScFe3(SiO3)8,2.8003,-7.938698514500001,-2.900402700458335
mp-1227614,Ca4Mg3Si8NiO24,4.7374,-7.7660762860000006,-3.244887420875
mp-1221226,Na4Al3Fe(SiO3)8,3.023,-7.730977719500001,-3.050296715137932
mp-1221254,Na3LiFe4(SiO3)8,2.767399999999999,-7.780766344750001,-2.7315718846867822
mp-1227711,Ca4CoSi8(NiO8)3,3.8439,-7.8147870565,-2.9485411905000003
mp-2217038,K4MgNb4(Si2O7)4,0.0,-8.057799890666667,-2.9798749696444453
mp-1226150,KNaCa2(SiO3)8,0.4556,-7.127081878472222,-2.442695805656369
mp-1173734,NaCa3Fe4(SiO3)8,1.489099999999999,-8.02148121675,-2.936675876284482
mp-1100794,Na3CaFe4(SiO3)8,0.0041999999999990005,-7.8382296574999994,-2.786618272103448
mp-1221158,Na4ScIn3(SiO3)8,3.8,-7.479739462,-2.926477416762931
mp-1220817,NaLi3Ga4(SiO3)8,4.2953,-7.410415614500001,-2.877053568784483
mp-1221288,Na3CaFe(SiO3)8,0.0,-7.147306245405406,-2.37286322416589
mp-1227573,Ca4MgSi8(NiO8)3,4.7986,-7.776118137999999,-3.047445939624999
mp-684912,NaCa3Fe4(SiO3)8,1.8735,-7.834194191749999,-2.749388851284481
mp-684864,Na6Al4Fe(Si4O13)2,3.1539,-7.571528480888889,-3.048146712628353
mp-698686,Na3CaFe4(SiO3)8,0.044799999999999,-7.638673058249999,-2.587061672853448
mp-1211939,Mn2Fe5Si8(HO12)2,2.8509,-8.114873773170732,-2.514432849472246
mp-1218635,SrCa3Al8(SiO5)8,0.026899999999999,-7.362882831000001,-2.712969184166668