Material_ID,Formula,Band_Gap,Energy_per_Atom,Formation_Energy_per_Atom
mp-2715414,Na3TaZnSi(PO6)2,2.539399999999998,-7.3420161445,-2.702834613037849
mp-2715417,Na3YZrSi(PO6)2,3.9834,-7.818334300875,-3.082646720546182
mp-2715418,Na3CaNbSi(PO6)2,1.830099999999999,-7.4131656165,-2.824972396671181
mp-2715432,Na3CaTaSi(PO6)2,2.4423,-7.563284999,-2.8868106540378493
mp-2715440,Na3YSiSn(PO6)2,2.212,-7.30085357475,-2.792072433171182
mp-2715433,Na3InSiSn(PO6)2,2.4968,-6.855067109416667,-2.533781855671182
mp-2715447,Na3TaZnSi(PO6)2,2.596999999999999,-7.350431260583334,-2.711249729121183
mp-2715441,Na3NbZnSi(PO6)2,1.7483,-7.1946651205,-2.643764714171182
mp-2715431,Na3InSiGe(PO6)2,2.108,-6.834779713,-2.4828216592545163
mp-2715438,Na3LaSiSn(PO6)2,1.588499999999999,-7.185510687333334,-2.755383765504517
mp-2715448,Na3TiInSi(PO6)2,2.0824,-7.251797317999999,-2.7362160561711812
mp-2715454,Na3NbZnSi(PO6)2,1.8371,-7.203162397666667,-2.652261991337849
mp-2715476,Na3MgTaSi(PO6)2,2.7617000000000003,-7.532568283333334,-2.874850431621183
mp-2715464,Na3ZrGaSi(PO6)2,3.7636000000000003,-7.390578855,-2.828941048546182
mp-2715496,Na3ZrGaSi(PO6)2,3.8371,-7.390340804,-2.8287029975461833
mp-2715477,Na3HfAlSi(PO6)2,4.521100000000001,-7.684948585000001,-3.016962368171183
mp-2715498,Na3ZrAlSi(PO6)2,4.2663,-7.57498394275,-2.9774721459211833
mp-2715499,Na3LaTiSi(PO6)2,2.065,-7.5726567005,-2.948233770587849
mp-2715486,Na3GaSiSn(PO6)2,3.117,-6.892288685416667,-2.557557317712849
mp-2715501,Na3ScSiSn(PO6)2,2.7076000000000002,-7.306854425166667,-2.806904403337849
mp-2715472,Na3ZrScSi(PO6)2,4.0744,-7.81180795575,-3.084951495171181
mp-2715491,Na3MgNbSi(PO6)2,1.6990999999999992,-7.375700817499999,-2.8062640909211822
mp-2715503,Na3ScSiGe(PO6)2,2.216199999999999,-7.28913646125,-2.758513639421181
mp-2715512,Na3GaSiGe(PO6)2,2.6646,-6.894156044499999,-2.528751876796181
mp-2715505,Na3TiGaSi(PO6)2,2.4316,-7.306606816500001,-2.77757944071285
mp-2715508,Na3LaSiGe(PO6)2,1.4129,-7.148176135833334,-2.687376414004516
mp-2715517,Na3TiAlSi(PO6)2,2.390799999999999,-7.499436647,-2.9345352808378493
mp-2715514,Na3ScSiSn(PO6)2,2.7910999999999992,-7.30646895525,-2.806518933421182
mp-2715568,NaZrTaSi(PO6)2,3.326,-8.543380384074075,-3.132927823407316
mp-2715563,NaNbSiSn(PO6)2,2.5558,-7.816190517222223,-2.75594636087028
mp-2715582,NaZrNbSi(PO6)2,2.4983999999999993,-8.376566480092594,-3.064204058462873
mp-2715612,NaTaSiSn(PO6)2,3.3753,-7.982580544351852,-2.824246248962873
mp-2715675,NaHfTaSi(PO6)2,3.3579,-8.667429184814816,-3.178671713036947
mp-2715682,NaTaTiSi(PO6)2,2.7369,-8.449297919814816,-3.075079170999909
mp-2715628,NaHfNbSi(PO6)2,2.555999999999999,-8.500918602222223,-3.11025126948139
mp-2715671,NaTaSiGe(PO6)2,3.227699999999999,-7.993396989722222,-2.800981805444354
mp-2715783,NaTiNbSi(PO6)2,2.5741,-8.280834143888889,-3.00470553411102
mp-2715738,NaNbSiGe(PO6)2,2.7659000000000002,-7.822531096203704,-2.7282060509628723
mp-720721,SiH18C4N8(O2F3)2,5.5638000000000005,-6.105582686036586,-1.192554487804879
mp-1199709,CaMnAl4SiP3(HO4)5,4.886700000000001,-7.418203986285714,-2.739440860803131
mp-1182654,CaMnAl4SiP3(HO4)5,0.7267,-6.663488763714286,-1.9847256382317022
mp-1228916,Ca4AlSiH24SO16F13,5.5254,-5.650001290166667,-2.202282882958333
mp-1204104,SiAgH16C7S3(OF)3,3.2777,-5.272529088823528,-0.5609968529901971
mp-1179195,Si2O3,0.9888999999999991,-7.304254349000001,-2.165350534
mp-1208867,Si2O,0.0,-4.578354515,0.6878445066666661
mp-862998,Si2O5,3.0491,-7.31173409,-2.227385363571429
mp-1063118,Si2O,0.0,-6.10415095,-0.8379519283333331
mp-1044140,Si2Sb15O28,0.4383,-6.489946113555555,-1.79375582911111
mp-1103547,Al2Si2O9,0.0,-7.353075324615385,-2.5166571119230783
mp-1179527,Si2H2O3,1.6829,-6.160114493428572,-1.519421357357142
mp-1179509,Si2H2O3,1.5741,-6.202201915428572,-1.561508779357142
mp-1179422,Si2H2O3,2.2075,-6.212063394571428,-1.5713702584999991
mp-1194176,Al2Si2O9,0.0594,-7.081105007692307,-2.244686795
mp-1197475,Mg3Si2O9,0.0,-6.629073248035715,-2.32380930875
mp-1225780,Dy2Si2O7,4.5344,-8.63424750560606,-3.659418946363636
mp-1229207,Al(SiO3)2,0.0,-7.933319615277778,-3.012877624166667
mp-1248872,Si2H2O3,1.257599999999999,-6.403803487857142,-1.7631103517857132
mp-1267080,Si2NiO6,0.0,-7.345693466250001,-2.199189158472222
mp-626085,Si2H2O5,4.5416,-7.175567318888889,-2.466592434166666
mp-627141,Si2H2O3,1.9251,-6.140609998428571,-1.499916862357142
mp-626977,Si2H2O3,2.017099999999999,-6.1121871724285715,-1.471494036357142
mp-627123,Si2H2O3,1.6237,-6.177337206714285,-1.536644070642856
mp-627114,Si2H2O3,2.1408,-6.119595286428572,-1.4789021503571431
mp-627206,Si2H2O3,1.5915,-6.153369795285714,-1.512676659214285
mp-627334,Si2H2O3,1.771599999999999,-6.195572567857143,-1.554879431785713
mp-627349,Si2H2O3,1.4147999999999992,-6.218984584857143,-1.5782914487857131
mp-627314,Si2H2O3,1.829699999999999,-6.192537439714286,-1.5518443036428562
mp-731939,Al2Si2O7,3.7039,-7.8837742904545465,-3.067636585454545
mp-850744,Fe3(SiO4)2,1.4127,-8.137589859999999,-2.303406188461537
mp-561551,Y2Si2O7,5.176900000000001,-8.966669886363636,-3.648074786818182
mp-561531,Y2Si2O7,4.5957,-8.942640619999999,-3.624045520454544
mp-27767,Li6Si2O7,4.995699999999999,-6.538989433333333,-2.742996080333333
mp-1193913,Li4Si2O7,0.0,-6.606189271538461,-2.519877382179486
mp-1217602,Ti4Si2O17,0.0,-7.717233924673913,-2.215149524166667
mp-1095467,Tm2Si2O7,4.7966999999999995,-8.663404466363644,-3.7132802795454642
mp-1193684,Fe3Si2O9,0.0,-7.912770647500001,-2.141888595000001
mp-28712,Si2Hg6O7,1.5122,-4.735976251333322,-1.579683229999991
mp-2874,In2Si2O7,2.7009,-7.320658041818181,-2.6838661707575753
mp-4300,Yb2Si2O7,0.0,-15.623811603636364,-3.588408935454545
mp-560584,Si2Ag6O7,0.17419999999999902,-5.6213634500000005,-1.451764172333332
mp-5594,Sc2Si2O7,4.2788,-8.893929204545456,-3.607447267727273
mp-5652,Y2Si2O7,4.8042,-8.976630778181818,-3.658035678636363
mp-7193,Lu2Si2O7,4.8449,-8.681426760909092,-3.724177851666667
mp-7064,Er2Si2O7,4.798599999999999,-8.666285244545453,-3.70066699772727
mp-754719,V2Si2O7,0.0,-8.675967093636364,-2.889223890454546
mp-1183429,Be2Si2O5,0.42249999999999904,-6.699003397777778,-1.913529307222222
mp-1185023,La2Si2O5,0.0,-7.752226381111111,-2.700842459444445
mp-1185778,Mg2Si2O5,1.653399999999999,-6.768747340000001,-2.451927216111112
mp-1188010,Zr2Si2O5,0.0,-7.963828235555557,-2.109845752777778
mp-972793,Si2B2O5,0.0,-6.454381978888889,-1.015579242592593
mp-971724,Ti2Si2O5,0.0,-7.840684946666666,-2.131637711296297
mp-561313,Si2Ag6O7,0.3115,-5.615029139666666,-1.445429861999999
mp-1182036,Cd5(SiO5)2,0.0,-5.739310602647059,-1.908116657941176
mp-1196659,NaSi2O7,0.0,-6.2231963605,-1.540387973137931
mp-1197843,Ca5(SiO5)2,0.5149,-7.320608949411765,-3.181888625294117
mp-1198989,Mn5(SiO5)2,0.9584,-8.702146632647061,-2.458598246156188
mp-16461,Gd2Si2O7,2.9046000000000003,-10.293983731136363,-3.599564860681817
mp-18391,Sm2Si2O7,4.9072000000000005,-8.608591894772728,-3.615543225227272
mp-18130,Nd2Si2O7,4.7764,-8.605421071136364,-3.603361256590908
mp-18315,Cs6Si2O7,3.162099999999999,-5.778488455333333,-2.382873220862069
mp-18483,Rb6Si2O7,3.1390000000000002,-5.851213063333332,-2.426575227999998
mp-25231,Fe(SiO3)2,0.0,-7.9449429063888894,-2.499562539722222
mp-28444,Fe3(SiO4)2,1.484499999999999,-8.184940541153846,-2.350756869615384
mp-30990,K6Si2O7,3.5108,-5.963680767333333,-2.478708671899999
mp-3193,Na2Si2O5,4.4712,-7.15552061638889,-2.902866989473182
mp-3932,Ca3Si2O7,4.4294,-7.747839005208333,-3.455908777291666
mp-505818,Eu2Si2O7,0.0,-9.253080114545455,-3.24739039409091
mp-555800,La2Si2O7,4.380800000000001,-8.681844147196971,-3.649264392196971
mp-556307,Na2Si2O5,4.4459,-7.149244303888889,-2.8965906769731813
mp-556423,Na2Si2O5,4.449899999999999,-7.151156793055555,-2.898503166139846
mp-562345,Cs2Si2O5,4.4604,-7.044972015277779,-2.8887057679789283
mp-5732,La2Si2O7,4.7992,-8.706532248636362,-3.673952493636363
mp-5913,Pr2Si2O7,5.3706,-8.612914260000005,-3.605886440757581
mp-662527,Ce2Si2O7,0.07010000000000001,-8.778385632954546,-3.563816284318179
mp-706477,La2Si2O7,1.9857,-7.836342317499999,-2.8037625624999993
mp-7624,Er2Si2O7,4.918,-8.664803792272727,-3.699185545454544
mp-7999,Y2Si2O7,4.931,-8.974188317727272,-3.655593218181817
mp-1207496,Zr(SiO)2,0.0,-7.1592471485,-1.3003954085
mp-1208594,Th(SiO)2,0.6268,-7.289356354000001,-1.657273089999999
mp-1208158,U(SiO)2,0.0,-7.498796581500001,-1.091202965499999
mp-1212568,Hf(SiO)2,0.0,-7.4175704620000005,-1.276821042
mp-4644,Si2N2O,4.440600000000001,-8.22482096025,-1.7297904492500011
mp-758216,Fe7(SiO6)2,0.3522,-8.171184313095237,-2.00374066595238
mp-726107,Al(SiO3)2,0.0,-7.92667321138889,-3.006231220277778
mp-1216932,Tl6Si2O7,1.5302,-5.741024576,-1.760011523000002
mp-1211849,Mg3Si2O9,0.0,-6.745462642142858,-2.440198702857144
mp-1214120,Ca6Si2O13,0.2308,-6.861018305000001,-2.708269333333334
mp-27228,Tl6Si2O7,1.5876000000000001,-5.882795201000003,-1.901782148000005
mp-24431,Si2H2O3,6.372199999999999,-6.765460013571428,-2.124766877500001
mp-28959,Si2Cl2O3,5.6739999999999995,-6.8951042225000005,-2.6963053089285722
mp-1143048,Si2MoO6,0.2843,-8.46313117111111,-2.753792037777777
mp-1143109,Si2MoO7,0.6165,-8.046140244499998,-2.412938923999998
mp-1142713,Mn(SiO3)2,0.802,-8.192916712777778,-2.670648114770115
mp-1142992,Si2SnO6,3.0294,-7.765300482222222,-2.8155255994444452
mp-1143521,Si2WO6,0.001699999999999,-8.725866472222222,-2.781807325555555
mp-1172399,Si2BiO6,0.0,-7.504033536666666,-2.567540603333333
mp-1203128,Fe(SiO3)2,0.723,-8.013379765277778,-2.567999398611111
mp-1210918,Mg3Si2O9,0.0,-6.761952530535715,-2.45668859125
mp-1264292,Si2NiO6,0.0,-7.377828564444444,-2.231324256666665
mp-1250558,Si2TeO7,0.07779999999999901,-7.062110774500001,-2.199143875666666
mp-1281584,V2Si2O7,1.8367,-8.676425885454547,-2.889682682272728
mp-1323719,Si2SbO6,0.0,-7.599556289444444,-2.636511475
mp-1341839,Co(SiO3)2,0.39940000000000003,-7.642252546111111,-2.345383789444444
mp-1379381,Si2WO7,0.6284000000000001,-8.315400780000001,-2.4709514475
mp-19351,MnSi2O5,2.237999999999999,-8.464296389374999,-2.870239342241378
mp-25240,Fe(SiO3)2,0.0,-7.95768388,-2.5123035133333342
mp-25239,V(SiO3)2,1.417799999999999,-8.449350899722223,-2.935761104166667
mp-25301,Ti(SiO3)2,3.331399999999999,-8.6873991,-3.30585531037037
mp-25238,Cr(SiO3)2,0.5592,-8.328192872777777,-2.751365143888888
mp-28971,Rb2Si2O5,4.0396,-7.061861271944446,-2.889471357500001
mp-4400,Si2N2O,5.1792,-8.042522287333334,-1.5474917763333331
mp-5224,BaSi2O5,4.6334,-8.046072220416667,-3.357395217291667
mp-726892,Al(SiO3)2,0.3647,-7.966336961388889,-3.045894970277778
mp-755043,Al2Si2O7,5.266500000000001,-8.14167034090909,-3.325532635909091
mp-763339,Fe7(SiO6)2,1.151,-8.18812713547619,-2.020683488333333
mp-1103891,Mg3Si2O9,0.0,-6.749614905,-2.444350965714286
mp-2948,Si2N2O,4.197399999999999,-8.22133363625,-1.7263031252500012
mp-21767,Si2Pb3O7,2.642199999999999,-7.134019084861112,-2.415327059444444
mp-1196427,Mg7(SiO7)2,0.19009999999999902,-6.512416557173913,-2.532617416521739
mp-1210640,Mg3Si2O9,0.0,-6.7448651689285715,-2.439601229642857
mp-1192605,Mg3Si2O9,0.0,-6.7490059625,-2.443742023214286
mp-27949,Si2H6O,5.2626,-4.624902982777778,-0.606059016388888
mp-556771,Nd2Si2O7,5.2351,-8.607772645681818,-3.605712831136363
mp-1211961,K(SiO2)2,0.0,-7.138303892857142,-2.5991824924642852
mp-1020179,Na6Si2O7,3.5458,-6.06628634175,-2.49717382396839
mp-1193561,Al3(SiO5)2,0.0,-7.583849109333333,-2.812717536
mp-1273857,V2Si2O7,1.8045,-8.681114566363636,-2.894371363181818
mp-1265975,V(SiO3)2,1.5244,-8.450854221944445,-2.937264426388889
mp-16809,Ho2Si2O7,4.9477,-8.634087132727272,-3.663021494090907
mp-17308,Tb2Si2O7,4.9475,-8.6355987440909,-3.657226894848477
mp-17235,Sm2Si2O7,5.321,-8.630244125681818,-3.637195456136363
mp-17062,Dy2Si2O7,4.9489,-8.634929109545455,-3.660100550303029
mp-18639,La2Si2O7,4.5629,-8.696865433863636,-3.664285678863635
mp-18318,Tm2Si2O7,4.9405,-8.626828739545454,-3.676704552727273
mp-29755,CaSi2O5,4.7791999999999994,-7.98653035375,-3.287025233125
mp-542469,Gd2Si2O7,2.7971,-10.313087682272727,-3.6186688118181802
mp-556860,Y2Si2O7,4.9349,-8.953615497272727,-3.635020397727272
mp-581644,Y2Si2O7,4.7121,-8.989618128257577,-3.671023028712122
mp-732264,Al(SiO3)2,3.0304,-7.873358117777779,-2.952916126666668
mp-753907,V(SiO3)2,1.8442999999999992,-8.425104033333334,-2.9115142377777783
mp-769046,Si2Sn2O7,2.5807,-7.431389956136363,-2.567252973863636
mp-770811,Si2As2O7,4.5533,-7.443889190454545,-2.459652085
mp-1229033,Al(SiO3)2,0.0,-7.942794741111111,-3.022352750000001
mp-19784,In2Si2O7,1.809899999999999,-7.194061394090909,-2.557269523030302
mp-563032,Ba21Si2O5,0.0,-3.717572271428571,-1.007253884821428
mp-756212,V2Si2O7,0.0,-8.638390502272728,-2.851647299090909
mp-7640,Sc2Si2O7,3.7458,-8.808870199090908,-3.522388262272726
mp-554856,Na2Si2O5,4.425800000000001,-7.131356037222222,-2.878702410306513
mp-582983,Ce2Si2O7,0.0,-8.74394331,-3.529373961363638
mp-554383,Na2Si2O5,4.4573,-7.152637355277779,-2.89998372836207
mp-1194006,Be4Si2O9,0.0,-7.424345660666668,-2.735016556333335
mp-1193906,Mg3Si2O9,0.0,-6.749521979642857,-2.444258040357143
mp-1192679,Be4Si2O9,0.269,-7.523464467333334,-2.834135363000001
mp-28503,Al10Si2O19,3.4466,-7.9288279359677425,-3.337935889032257
mp-4497,Si2N2O,4.924799999999999,-8.413852492,-1.9188219810000002
mp-768931,Ga10Si2O19,2.2561,-6.748440593870968,-2.388993646129031
mp-4117,Li2Si2O5,5.154,-7.394610862777777,-3.015912327407407
mp-541728,Si2Ag6O7,0.33,-5.618925945833333,-1.449326668166665
mp-1103526,Zn4Si2O9,0.17369999999999902,-6.165352111333334,-2.137268141666667
mp-585516,Ca3Si2O7,4.659,-7.754278442916667,-3.462348215
mp-1340191,Co(SiO3)2,0.4162,-7.632080043333334,-2.335211286666667
mp-626037,Si2H2O5,5.5156,-7.278432651666667,-2.569457766944444
mp-1020114,MgSi2O5,5.310200000000001,-7.7295163246875,-3.076902437187501
mp-1247851,Al10Si2O19,3.578499999999999,-7.923160094516129,-3.332268047580645
mp-1247887,Al10Si2O19,3.7364,-7.934751494516129,-3.343859447580645
mp-1208960,Si2Ag2O5,1.2165,-6.811547441388889,-2.2252900589814812
mp-16970,Na2Si2O5,4.4295,-7.152196413611112,-2.8995427866954033
mp-3552,Li2Si2O5,5.414,-7.389705800555556,-3.011007265185186
mp-727389,Na(SiO4)2,0.0,-6.124459668181817,-1.417546497398118
mp-1041763,Ti(SiO3)2,4.0908,-8.682490157222222,-3.300946367592592
mp-1042209,Si2MoO6,2.3237,-8.380197650416667,-2.670858517083333
mp-1042247,Si2WO6,2.968899999999999,-8.595932546666667,-2.651873399999999
mp-1041773,Si2SnO6,3.221299999999999,-7.690620062638889,-2.740845179861111
mp-1042331,Mn(SiO3)2,0.8894000000000001,-8.09253059152778,-2.5702619935201163
mp-1042286,Co(SiO3)2,0.8597999999999991,-7.680240694444445,-2.383371937777779
mp-1041841,Si2BiO6,0.26230000000000003,-7.436095809305556,-2.499602875972223
mp-1041875,Si2SbO6,0.200499999999999,-7.56245159375,-2.5994067793055553
mp-1042355,Cr(SiO3)2,1.808399999999999,-8.299065964722223,-2.7222382358333332
mp-1199781,Si2H2O3,6.7877,-6.76790845029762,-2.127215314226191
mp-1253019,Fe(SiO3)2,0.0,-7.920635401527779,-2.475255034861112
mp-1363556,Si2NiO6,0.0,-7.334381914027777,-2.18787760625
mp-766596,Ti(SiO3)2,3.3054,-8.68021740125,-3.29867361162037
mp-766689,V(SiO3)2,1.500499999999999,-8.44361813763889,-2.930028342083334
mp-1182475,BaSi2O9,0.055400000000000005,-6.578370329166667,-1.803265325416667
mp-1201483,RbSi2O5,1.1371,-7.330313324375,-2.7589414296875
mp-1205232,BaSi2O9,0.25170000000000003,-6.356944227291667,-1.581839223541667
mp-13775,Gd2Si2O7,3.2104,-10.324141921363644,-3.629723050909097
mp-17404,Y2Si2O7,5.381399999999999,-8.966293547045455,-3.647698447499999
mp-18662,Ho2Si2O7,5.3233000000000015,-8.64616047772728,-3.675094839090914
mp-21599,Eu2Si2O7,0.0,-9.278703388863635,-3.273013668409091
mp-3031,BaSi2O5,4.7582,-8.049398380312507,-3.360721377187507
mp-756726,Mn2Si2O7,0.0,-8.411660601363636,-2.610715721442005
mp-560886,SrSi2O5,4.0548,-7.87743821625,-3.217079569374999
mp-21794,Sm2Si2O7,5.0,-8.615494127613637,-3.622445458068182
mp-15225,Nd2Si2O7,5.0173,-8.611045612045455,-3.6089857975
mp-3160,Pr2Si2O7,5.026299999999999,-8.604774536477272,-3.5977467172348483
mp-5974,La2Si2O7,4.673799999999999,-8.697950716818182,-3.665370961818182
mp-672208,Ce2Si2O7,0.049400000000000006,-8.757928799431818,-3.543359450795454
mp-1103571,Al2Si2O11,0.0,-6.723563212,-1.872272627
mp-1104479,Mg3Si2O9,0.0,-6.749246037142858,-2.443982097857144
mp-1183020,Al2Si2O11,0.0,-6.480915264,-1.629624678999999
mp-1182905,Al2Si2O11,0.0,-6.338456187333334,-1.487165602333333
mp-725197,Mg3Si2O9,0.5438000000000001,-6.48142443,-2.176160490714286
mp-1210523,NaSi2O5,0.42300000000000004,-7.295533150625,-2.679012917672414
mp-557290,Na2Si2O5,3.887599999999999,-7.090044687222222,-2.8373910603065142
mp-1179481,Si2H2O3,2.1542,-6.119564550428572,-1.478871414357142
mp-1179424,Si2H2O3,1.8548,-6.065932083714286,-1.425238947642856
mp-1179458,Si2H2O3,2.0535,-6.110075288571428,-1.469382152499999
mp-1194249,Ca3(SiO5)2,0.0,-6.772883663666667,-2.3497472803333332
mp-1192629,Al2Si2O9,0.24099999999999902,-7.351251755000001,-2.5148335423076933
mp-1192646,Al2Si2O9,0.3175,-7.352824167307693,-2.516405954615386
mp-1194460,Mg3Si2O9,0.0,-6.74907964107143,-2.443815701785715
mp-1192644,Al2Si2O9,0.0,-7.351407264230771,-2.514989051538463
mp-1201477,Al2Si2O9,0.23190000000000002,-7.352156980576924,-2.515738767884616
mp-1261785,Si2H2O3,1.9737,-6.133197042000001,-1.492503905928571
mp-29825,K2Si2O5,4.4142,-7.106603840000001,-2.9006948921666673
mp-626083,Si2H2O5,5.3812,-7.268036452222223,-2.5590615675
mp-18385,Lu2Si2O7,5.199199999999999,-8.661769953181818,-3.704521043939393
mp-1202190,Lu2Si2O7,5.1931,-8.6614659625,-3.704217053257575
mp-1229099,Al(SiO3)2,0.0,-7.9351842816666665,-3.014742290555555
mp-1176791,Li9Mn(SiO5)2,1.1311,-6.434853970000001,-2.495191824451411
mp-1176868,Li9Si2NiO10,0.0,-6.154076624545454,-2.368136234090909
mp-1177732,Li3Co2(SiO4)2,0.5561,-7.070290276,-2.3750952
mp-1177775,Li2VSi2O7,1.4198,-7.662526135416666,-2.796849893888888
mp-1180388,Na2Ti2Si2O11,0.34090000000000004,-7.423632317647058,-2.497006864377958
mp-1191091,LiAlSi2O7,1.8606,-7.287852528181818,-2.638683274393939
mp-1190355,LiAlSi2O7,0.0,-7.423412510909091,-2.774243257121212
mp-1219350,Si2Ag9NO11,0.15029999999999902,-5.450610660869565,-1.137440053695651
mp-1233752,CaTl6Si2O7,0.9081999999999991,-5.658577359375,-1.801027629687502
mp-1234150,MgTl6Si2O7,1.0747,-5.547111761875,-1.713007648750002
mp-1235411,LiSi2(AgO)8,0.0,-5.236856533684211,-1.284922407719296
mp-1235917,LiTl6Si2O7,0.11919999999999902,-5.56627307375,-1.714765657395835
mp-1235978,LiTl6Si2O7,0.043099999999999,-5.582819645,-1.7313122286458351
mp-1236190,LiTl6Si2O7,0.009800000000000001,-5.55568235375,-1.704174937395835
mp-1253145,Li3VSi2O7,2.2957,-7.475045821666667,-2.8368121474358983
mp-1250597,Li10Co(SiO5)2,2.0015,-6.186042714565218,-2.422873519057972
mp-1263657,Li10Cr(SiO5)2,0.6955,-6.332209695869564,-2.45949133731884
mp-1273461,Li4Si2NiO7,3.6686,-6.820142462321428,-2.612843087916665
mp-1306409,Li3Fe2(SiO4)2,1.4957,-7.385817553333333,-2.512408545333333
mp-1306442,Li3Mn2(SiO4)2,1.0612,-7.567106229333333,-2.601431343724137
mp-1312705,Li3Mn2(SiO4)2,0.35960000000000003,-7.5562931330000005,-2.590618247390805
mp-2214947,Fe2Si2SbO9,0.162199999999999,-7.725347156428571,-2.264537958928571
mp-2214664,Fe2Si2BiO9,0.3387,-7.690004777142856,-2.246264646071428
mp-555300,Na2Zn3(SiO4)2,2.9909,-6.267439329777778,-2.474306230628352
mp-541152,Al2Si2H4O9,4.9851,-7.10799302,-2.610692871764706
mp-558808,LiAl(SiO3)2,4.9005,-7.8239408390000005,-3.204650760333332
mp-560341,EuSi2(NO)2,0.5023,-9.179480362142856,-2.363591008571429
mp-662522,Na2Zn(SiO3)2,3.7521,-6.73051779909091,-2.686737139341693
mp-753099,Li3Co2(SiO4)2,0.3791,-7.101662287333334,-2.406467211333334
mp-752644,Li3Fe2(SiO4)2,1.166999999999999,-7.366174122666666,-2.492765114666666
mp-753370,Li3MnSi2O7,1.1755,-7.311158016923077,-2.666915940994694
mp-754026,Li3Mn2(SiO4)2,0.0,-7.555778797333333,-2.590103911724137
mp-753684,LiFe(SiO3)2,3.073699999999999,-7.8193100315,-2.727575414833333
mp-753715,Li4Si2NiO7,3.4147,-6.820728000357143,-2.61342862595238
mp-753965,Li3Mn2(SiO4)2,0.0,-7.556744072333333,-2.591069186724138