Material_ID,Formula,Band_Gap,Energy_per_Atom,Formation_Energy_per_Atom
mp-1282693,Fe(NiO2)2,0.0,-6.983654339285714,-1.294777397857142
mp-19359,NaFeO2,1.9918999999999991,-6.7247904325,-1.797874432844827
mp-19225,FeAgO2,1.148499999999999,-6.521329300625,-1.219109076041666
mp-19419,LiFeO2,1.6720000000000002,-6.9387798725,-1.870063350833333
mp-510281,FeCuO2,0.8043999999999991,-6.937399098749999,-1.3211116262499991
mp-607310,TlFeO2,1.5549,-6.404912869999999,-1.2205590358333351
mp-753474,FeCo3O8,0.0,-6.803359004166666,-1.015529053333333
mp-756562,Mn3FeO8,0.0,-7.911381279166666,-1.6164016853160912
mp-867719,FePtO2,0.0,-7.2828276787499995,-1.1735585437499991
mp-996994,FeAuO2,0.47790000000000005,-6.565277035625,-1.155320730625
mp-1078634,LaFeO3,1.950899999999999,-8.50290807,-2.852925804
mp-1204434,Fe(PO4)3,0.0,-6.8252758653125,-1.5695274999330362
mp-18969,FeCO3,0.0,-8.298319626,-1.789805682499999
mp-19097,FeBO3,1.481599999999999,-8.269021531000002,-2.270362331833334
mp-772512,FePO4,1.464,-7.902403056666666,-2.289513264107142
mp-23069,Fe(IO3)3,2.0217,-5.407422442307692,-0.978675665384616
mp-1173139,Ta2FeO6,2.3554,-9.843971279814816,-2.967122132555556
mp-19752,FePO4,2.5713,-7.934818130972222,-2.321928338412698
mp-1193395,LuFeO3,0.0,-8.468754416333333,-2.901636080666666
mp-1376289,YFeO3,1.2742,-8.781297638666668,-2.816698493666668
mp-558400,TmFeO3,0.0,-8.448114512666667,-2.888833371666667
mp-771123,ScFeO3,0.9222999999999991,-8.708788777333332,-2.779514111333333
mp-761579,FeCo3O8,0.0,-6.8656842550000015,-1.077854304166667
mp-756788,Mn3FeO8,0.0,-7.93766066625,-1.6426810723994252
mp-754977,LiFeO2,1.7861,-6.974886071249999,-1.906169549583332
mp-25310,Fe(PO3)3,2.8462,-7.790509387692309,-2.463733169917582
mp-625251,FeHO2,0.0,-6.595647372499999,-1.155369957812499
mp-758484,Na2FeO3,0.0,-5.9186251474999985,-1.5857341837931012
mp-1097012,FeCoO2,0.0,-7.4124037675,-1.0375637825
mp-1192651,BaFeO3,0.0,-7.196856963333332,-2.1502811303333322
mp-1275986,YFeO3,0.0,-8.786369046999999,-2.821769901999999
mp-1274711,FeBO3,0.6726999999999991,-8.1665428,-2.167883600833333
mp-18966,FeAgO2,1.158,-6.515369542499999,-1.213149317916666
mp-21094,InFeO3,1.2138,-7.017711596000001,-1.8030960023333331
mp-505110,FeCuO2,0.0,-6.9323286275000005,-1.316041154999999
mp-754342,ScFeO3,0.0,-8.694239036,-2.76496437
mp-971633,NaFeO2,2.566599999999999,-6.6407232225,-1.713807222844828
mp-759730,Fe(Bi5O8)5,0.767999999999999,-6.204032616818182,-1.603436871969698
mp-1046324,CaFeO2,1.3405,-7.35110146,-2.258215684999999
mp-1046293,ZnFeO2,0.49660000000000004,-6.411280278125,-1.5048585706250002
mp-1046282,MgFeO2,0.0,-7.04992307375,-2.050819765
mp-1048244,CaFeO2,2.5069,-7.454733353124999,-2.361847578124999
mp-1101552,FeP4O13,0.1028,-7.355832963611111,-2.108310276031746
mp-1101128,Ti2FeO5,1.0649,-9.12816949921875,-3.003068215677083
mp-1102979,FeS2O9,0.0,-6.4410191475000005,-1.334486698333333
mp-1178212,FeSnO3,0.8620000000000001,-7.323507478000002,-1.858812262000002
mp-1179354,TiFeO3,2.590099999999999,-8.896343262,-2.654464013666667
mp-1181634,Fe(MoO5)2,0.8519,-7.1516595242307694,-1.02543402576923
mp-1181788,FeSO8,0.0,-5.49162979925,-0.27242291749999903
mp-1193076,Fe(MoO5)2,0.13090000000000002,-7.008332405384615,-0.882106906923075
mp-1197869,FeSO8,0.15940000000000001,-5.733340596,-0.51413371425
mp-1199365,Fe(ReO5)3,0.0,-7.699060799210525,-1.3814934882894732
mp-1202404,FeSO8,0.0,-5.92669233875,-0.7074854570000001
mp-1203935,FeSO8,0.0825,-5.912558378,-0.693351496249999
mp-1205381,Cs4FeO3,0.39029999999999904,-4.739203354375,-1.370976541077587
mp-1279062,Fe(BO2)2,4.099600000000001,-8.402612582142856,-2.456805614761903
mp-1277107,TiFeO3,2.2487,-8.971592041000001,-2.729712792666666
mp-1279364,MgFeO3,0.2,-6.998651236500001,-2.0097763885
mp-1283232,Fe(CO3)2,0.0,-7.8732332725,-1.5826645808333342
mp-1305509,Na2FeO3,0.5869000000000001,-5.964459653333332,-1.6315686896264352
mp-1303136,Li2FeO3,0.06520000000000001,-6.399125686666668,-1.8771673602777792
mp-1306929,Na2FeO3,0.013300000000000001,-5.9614524075,-1.628561443793103
mp-1312206,V2FeO6,1.923,-8.455307889444448,-2.196907958333336
mp-1369460,CaFeO2,1.403399999999999,-7.258306121875,-2.165420346875
mp-1370181,ZnFeO2,0.44470000000000004,-6.391346026874999,-1.484924319374999
mp-1394938,MgFeO2,1.6185,-6.38847395,-1.38937064125
mp-1639590,Mg10FeO11,3.274800000000001,-6.494539374886363,-2.894435174204545
mp-1446179,MgFeO2,1.3027,-7.063341846875,-2.064238538125
mp-1785424,MgFeO2,0.0,-7.060947239374999,-2.061843930625
mp-19022,Na4FeO4,1.763199999999999,-5.362194069444445,-1.625666475613027
mp-2352131,KFeO2,2.8141,-6.5615980856250005,-1.6872698499374992
mp-26626,FeP2O7,0.08560000000000001,-7.523753985499999,-2.13008445592857
mp-26564,FeP2O7,0.0,-7.541043854,-2.1473743244285712
mp-2763178,Na2FeO3,0.7220000000000001,-5.938680309166666,-1.605789345459769
mp-2756207,Rb4FeO4,0.9588999999999991,-5.101303799166666,-1.5253036302777772
mp-504509,VFeO4,0.0839,-8.289074351111111,-2.064779134444444
mp-540314,Fe(PO3)3,2.091599999999999,-7.74317078846154,-2.416394570686813
mp-697733,FeP2O7,0.0,-7.617380905,-2.223711375428571
mp-724325,Fe(PO3)3,1.8598000000000001,-7.740355750192308,-2.4135795324175833
mp-746730,FeP4O11,4.329000000000001,-7.62489228421875,-2.339924386316963
mp-752751,Mn2FeO6,0.0,-7.839278791111111,-1.563521255095786
mp-753206,Mg10FeO11,3.2225,-6.494559455227272,-2.894455254545454
mp-753395,FePO4,1.3564,-7.964475752916666,-2.351585960357142
mp-753916,V3FeO8,0.7476,-8.494170945416668,-2.218718657083334
mp-754432,Na2FeO4,1.3696000000000002,-5.740660895714285,-1.319902783251231
mp-755232,Li4FeO4,0.304299999999999,-5.8632869875,-1.874669576759259
mp-755712,Rb4FeO4,0.47789999999999905,-5.102061725833334,-1.5260615569444451
mp-756497,LiFeO2,1.4741,-6.986277358,-1.917560836333332
mp-756356,Li8FeO6,0.3347,-5.526330904,-1.964386225777777
mp-757698,Mn23FeO32,0.657299999999999,-8.765116420714286,-2.023489187007389
mp-758773,FeOF,1.3029,-7.142586586458333,-2.031975056458333
mp-759284,FeOF,1.5979,-7.143472217916667,-2.032860687916667
mp-759268,FeOF,1.5767,-7.181557098958334,-2.070945568958334
mp-759025,Na4FeO5,0.0,-5.3170536885000015,-1.459382753551724
mp-763780,Fe(PO3)3,2.0429,-7.732653750769231,-2.405877532994505
mp-764836,Na4FeO5,0.481699999999999,-5.33920030375,-1.481529368801724
mp-763029,FeOF,1.436999999999999,-7.114183995555556,-2.003572465555556
mp-771048,FeCo9O20,0.30160000000000003,-6.7840385176666675,-1.063038791333333
mp-797052,Mg10FeO11,0.32480000000000003,-5.412037990454546,-1.811933789772727
mp-800100,Na4FeO5,0.0,-3.032029554,0.8256413809482751
mp-1284893,TiFeO4,0.4657,-8.380101655416667,-2.353875447638889
mp-1202032,FeSnO6,0.6926999999999991,-5.946089172187499,-0.6751692853124991
mp-1212714,FeTe3O8,0.0,-6.219726111666667,-1.4294238675
mp-1278941,TiFeO4,0.31709999999999905,-8.3744284,-2.348202192222222
mp-2234217,FePO4,2.4147,-7.926966029444445,-2.31407623688492
mp-776400,FeCo3O8,0.2459,-6.8149981833333335,-1.0271682325
mp-849528,Li3FeO4,0.332099999999999,-6.053095938749999,-1.804516709999999
mp-1001571,CaFeO3,0.0,-7.2402726,-2.176371779
mp-1075904,EuFeO3,0.0,-9.079024254,-2.358621026000001
mp-1076368,MgFeO3,0.0,-6.604848745999999,-1.615973897999998
mp-1099245,Mg3FeO4,0.0,-6.63108713625,-2.486927726875
mp-1099588,SmFeO3,0.723499999999999,-8.187931516,-2.581433444000001
mp-1184032,GaFeO3,0.0,-6.315184128,-1.0467840785
mp-1184033,GaFeO3,0.0,-6.285739848,-1.0173397985
mp-1184215,FeAsO3,0.0,-6.48276029,-0.8859549385000001
mp-1184234,FeAgO3,0.0,-5.926390778,-0.695022397333332
mp-1184349,FeRhO3,0.0,-6.499841534000001,-0.364199115
mp-1185320,LiFeO3,0.0,-6.294544591999999,-1.249979173666666
mp-1186220,NbFeO3,0.0,-8.593945928,-1.910904074999999
mp-1186134,NaFeO3,0.0,-6.223837712,-1.292712711275861
mp-1187220,TaFeO3,0.0,-9.176723004,-2.140556650466666
mp-1207083,FeSnO3,0.0,-6.546368164,-1.081672948
mp-1416093,YFeO3,0.6372999999999991,-8.454524802,-2.489925657
mp-19035,BaFeO3,0.0,-7.148832340666665,-2.102256507666665
mp-510624,SrFeO3,0.0,-7.224249359999999,-2.222982896999998
mp-547069,FeBiO3,0.0,-6.859884235999999,-1.419096528999999
mp-552676,LaFeO3,0.848399999999999,-8.372899576,-2.722917310000001
mp-861502,AcFeO3,0.9887999999999991,-8.258555312000002,-2.771539465500001
mp-864636,CeFeO3,0.0,-8.422955156,-2.572784337
mp-973648,FeRhO3,0.0,-6.602590334,-0.46694791500000005
mp-973579,FePbO3,0.0,-6.761996207999999,-1.356685948999998
mp-975322,RbFeO3,0.0,-6.023394786,-1.164507126499999
mp-1197322,FeSnO6,0.0,-5.9433543025,-0.6724344156250001
mp-1080749,CsFeO2,1.976,-6.5497713625,-1.731291164913793
mp-18828,TlFeO2,1.05,-6.34925076375,-1.164896929583335
mp-20167,V2FeO4,0.0,-8.817605661428571,-2.184794608571427
mp-20168,Cr2FeO4,0.0,-8.973022760714287,-2.177599879285715
mp-640147,Fe(NiO2)2,0.0,-6.997522950714284,-1.308646009285712
mp-754958,RbFeO2,1.7970000000000002,-6.5369965924999995,-1.7003772693750001
mp-755709,LiFeO2,1.6818,-7.012374237499999,-1.943657715833333
mp-768465,Mg2FeO4,0.0,-6.760073693571428,-2.256815799285714
mp-867706,V16FeO41,0.5244,-8.341560321206897,-2.1919237775
mp-752975,FeOF,1.2567,-7.2200474675,-2.1094359375
mp-625220,FeHO2,1.998599999999999,-6.935290141875,-1.4950127271874991
mp-1213097,Fe(O2F)2,0.23309999999999903,-5.514867319285714,-0.930643036428571
mp-766460,FePO4,2.793599999999999,-7.936814973541666,-2.323925180982142
mp-766442,FePO4,2.7559,-7.937561492499999,-2.324671699940476
mp-1173143,Ta2FeO6,2.1644,-9.845244017407408,-2.968394870148148
mp-37509,NbFeO4,1.948,-8.840079098333332,-2.446217386666666
mp-1220416,NbFeO4,1.1919,-8.864331004166667,-2.4704692925
mp-25259,Fe(Se2O5)2,0.0,-5.972755264666667,-1.177203453291667
mp-1290888,TiFeO4,0.0,-8.37036675375,-2.344140545972222
mp-1665973,Li3FeO3,0.0,-6.042841914999999,-1.894174368571428
mp-2234625,FePO4,0.6198,-7.864119209166667,-2.251229416607143
mp-510670,FeHO2,1.8729,-6.938650486249999,-1.498373071562499
mp-605340,LaFeO3,1.766,-8.2110151845,-2.561032918500001
mp-754617,Na3FeO4,0.15380000000000002,-5.550631805625,-1.5147533598922411
mp-752995,FeOF,0.8664000000000001,-7.094189691666666,-1.9835781616666661
mp-756807,FeOF,1.776,-7.150466101666666,-2.039854571666666
mp-758560,FeOF,1.1941,-7.221493463333334,-2.110881933333333
mp-768682,Rb5FeO4,0.9569000000000001,-4.757395948499999,-1.440942389249999
mp-21060,NaFeO2,2.060799999999999,-6.674936929999999,-1.748020930344827
mp-26792,FePO4,2.7373000000000003,-7.920695866666666,-2.307806074107142
mp-34591,NbFeO4,2.1731,-8.840908612916666,-2.44704690125
mp-39933,TaFeO4,2.296399999999999,-9.320093847083333,-2.631961718305554
mp-540111,FePO4,0.367199999999999,-7.9446822329166675,-2.331792440357143
mp-625252,FeHO2,0.0,-6.86996377,-1.429686355312499
mp-649086,GaFeO3,0.17240000000000003,-7.22065485375,-1.952254804249999
mp-755536,RbFeO2,1.5864,-6.60886844,-1.772249116874999
mp-753756,FePO4,2.7686,-7.924065438333333,-2.311175645773809
mp-1225088,FeSbO4,1.216899999999999,-7.216633777777777,-1.818156032777777
mp-1217946,TaFeO4,1.801499999999999,-9.331649501666668,-2.643517372888889
mp-1180667,La3FeO6,2.0848,-8.654984572,-3.3584037165
mp-1105484,Sm3FeO6,1.4942,-8.566373507,-3.3350189425
mp-1189831,Gd3FeO6,2.5521000000000003,-11.38115461,-3.342539213999998
mp-1189159,Eu3FeO6,0.0,-9.691289408500001,-2.789077110000002
mp-1186277,Nd3FeO6,2.080899999999999,-8.53000074,-3.28377778625
mp-24200,FeHO2,1.043,-6.43104477125,-0.990767356562499
mp-626088,FeHO2,1.7285,-6.98259610875,-1.542318694062498
mp-754743,Na2FeO2,0.041299999999999004,-5.726558192,-1.516681236551723
mp-755627,Na2FeO3,0.0494,-5.9116329316666665,-1.5787419679597692
mp-763305,Li8FeO6,0.0,-5.530882984333333,-1.9689383061111112
mp-764163,Li3FeO4,0.0,-6.012010012499999,-1.7634307837499992
mp-1101126,Ti2FeO5,1.651199999999999,-9.138108193958333,-3.013006910416666
mp-1181530,FeHO2,2.0028,-6.810611726249999,-1.370334311562499
mp-1277703,Na3FeO4,0.7134,-5.553959861562498,-1.51808141582974
mp-2226385,Fe(PO3)3,2.9129,-7.783523383076924,-2.456747165302197
mp-25246,FeP2O7,0.031399999999999005,-7.5323746825,-2.138705152928571
mp-585418,Fe(PO3)4,0.056100000000000004,-7.60818606882353,-2.343042105798319
mp-625282,FeHO2,0.0,-6.841966011875,-1.401688597187499
mp-755772,FeOF,0.1733,-6.604256000416666,-1.493644470416666
mp-753017,FeOF,1.7851,-7.196689380555556,-2.086077850555556
mp-754616,FeOF,0.0,-7.151327582916667,-2.040716052916667
mp-754726,FeOF,0.0,-7.15027984,-2.039668310000001
mp-762996,FeOF,1.7746,-7.148828082916666,-2.038216552916667
mp-1279318,Li3FeO4,0.187899999999999,-6.001209931875,-1.752630703125
mp-779908,Na2FeO3,0.2353,-5.969644439166665,-1.6367534754597681
mp-1103361,Ti3FeO7,1.2912,-8.989037563636364,-2.917017173181817
mp-1273579,Na2FeO3,0.3879,-5.961340703333332,-1.628449739626435
mp-1286870,V2FeO4,1.1355,-8.81867591142857,-2.185864858571427
mp-1573889,Na2FeO3,0.35339999999999905,-5.961572356666667,-1.628681392959769
mp-2236419,FePO4,2.5353,-7.933501597222222,-2.320611804662698
mp-25260,FeAs2O7,0.33790000000000003,-6.708211097,-1.463611766
mp-26182,FeP2O7,0.0,-7.625308369,-2.231638839428571
mp-626689,Fe(HO)2,2.2781000000000002,-6.377852876,-1.346597656499999
mp-763248,V4FeO12,0.0,-8.19536480764706,-2.067060245882353
mp-763022,FeOF,1.7207999999999992,-7.14853853875,-2.037927008750001
mp-771261,Mn3FeO8,0.0,-7.904430629166666,-1.609451035316091
mp-777454,V5FeO12,0.0,-8.571280881666667,-2.278776236111111
mp-774155,Li2FeO3,0.09139999999999901,-6.399917599166667,-1.877959272777777
mp-1278982,CaFeO3,0.0,-7.239529129999999,-2.175628308999999
mp-756941,LiFeO3,0.0,-6.4609133395,-1.416347921166667
mp-759394,Li2FeO3,0.0,-6.33305248875,-1.811094162361111
mp-759708,Fe(PO3)3,2.777599999999999,-7.644231368653847,-2.317455150879121
mp-754543,Na2FeO4,0.0,-5.687078774642857,-1.266320662179803
mp-779333,Li5FeO4,2.8482000000000003,-5.75332931325,-1.9726813569166661
mp-540828,FeClO,1.9133,-6.5817956933333335,-1.492954021666667
mp-752941,FeOF,1.732899999999999,-7.194287791666667,-2.083676261666667
mp-754255,Rb5FeO4,0.9507999999999991,-4.7376760215000004,-1.421222462249999
mp-757614,LiFeO2,1.712499999999999,-7.013653269374999,-1.944936747708332
mp-1178228,FeOF,1.4842,-7.156099156666666,-2.045487626666667
mp-1178244,FeOF,0.0,-7.143066816111111,-2.032455286111112
mp-1178238,FeOF,0.0,-7.13948141888889,-2.028869888888889
mp-1178245,FeOF,0.0,-7.140180052407408,-2.029568522407408
mp-752563,FeOF,0.0,-7.097716031111111,-1.987104501111111
mp-754527,FeOF,0.7109999999999991,-7.138516674444444,-2.027905144444444
mp-753274,FeOF,0.21850000000000003,-7.135669125000001,-2.025057595000001
mp-752804,FeOF,0.45009999999999906,-7.137078363750001,-2.026466833750001
mp-752991,FeOF,0.9122999999999991,-7.128200862777778,-2.017589332777777
mp-754831,FeOF,0.507099999999999,-7.122958237222223,-2.012346707222223
mp-754590,FeOF,0.0,-7.110619709999999,-2.000008179999999
mp-754764,FeOF,1.1254,-7.1369356008333344,-2.026324070833334
mp-752593,FeOF,1.420499999999999,-7.154124155000001,-2.043512625
mp-752992,FeOF,1.671899999999999,-6.9789914516666665,-1.868379921666666
mp-753238,FeOF,0.9023000000000001,-7.148345598333333,-2.037734068333333
mp-752880,FeOF,1.7348,-7.152222128750001,-2.041610598750001
mp-753145,FeOF,0.9423,-7.142791475,-2.032179945
mp-754879,FeOF,1.1292,-7.143426107777778,-2.032814577777778
mp-758442,FeOF,0.0,-7.099096455000001,-1.988484925
mp-758716,FeOF,1.2968,-7.155149478333333,-2.044537948333333
mp-758782,FeOF,0.7532999999999991,-7.145673005277778,-2.035061475277778
mp-757453,FeOF,0.0,-7.103990155000001,-1.993378625
mp-758352,FeOF,0.321499999999999,-7.137709187407408,-2.027097657407407
mp-758664,FeOF,0.0,-7.11878598962963,-2.00817445962963
mp-758159,FeOF,0.0,-7.133186380555555,-2.022574850555555
mp-758500,FeOF,0.138999999999999,-7.120596507222221,-2.009984977222222
mp-758461,FeOF,0.0,-7.105279693333333,-1.994668163333333
mp-758710,FeOF,0.0,-7.145739027962963,-2.035127497962963
mp-758738,FeOF,0.23839999999999903,-7.141673608888889,-2.031062078888889
mp-759027,FeOF,0.2722,-7.132676770555556,-2.022065240555556
mp-759331,FeOF,0.343199999999999,-7.146088046666667,-2.035476516666667
mp-759080,FeOF,1.3000999999999991,-7.155959064444444,-2.045347534444444
mp-759130,FeOF,0.46190000000000003,-7.149773803518519,-2.039162273518519
mp-759283,FeOF,0.4687,-7.188629885,-2.078018354999999
mp-759248,FeOF,1.384,-7.156794155925927,-2.046182625925926
mp-759192,FeOF,0.0,-7.100214436666668,-1.989602906666668
mp-759222,FeOF,0.0,-7.1253967777777785,-2.014785247777778
mp-759247,FeOF,0.3851,-7.140602768611111,-2.029991238611111
mp-759295,FeOF,0.0,-7.1339211425,-2.0233096125
mp-759467,FeOF,0.0,-7.120525686944443,-2.009914156944444
mp-759395,FeOF,0.0,-7.1370243575,-2.026412827499999
mp-759427,FeOF,1.3618000000000001,-7.170905160740741,-2.060293630740741
mp-759113,FeOF,0.0,-7.131504976111111,-2.02089344611111
mp-759193,FeOF,0.6595000000000001,-7.146698488055555,-2.036086958055555
mp-759201,FeOF,0.0,-7.086917201666667,-1.9763056716666672
mp-759436,FeOF,0.19960000000000003,-7.149177914629631,-2.03856638462963
mp-758902,FeOF,0.23390000000000002,-7.143449545555555,-2.032838015555555
mp-759058,FeOF,0.33539999999999903,-7.129489437222222,-2.018877907222222
mp-759164,FeOF,0.0,-7.130193785555556,-2.019582255555556
mp-759262,FeOF,0.059299999999999006,-7.126284898888888,-2.015673368888888
mp-759425,FeOF,0.0,-7.131962767499999,-2.021351237499999
mp-759478,FeOF,0.0,-7.129149169444444,-2.018537639444444
mp-759563,FeOF,0.212899999999999,-7.140700983333334,-2.030089453333334
mp-759551,FeOF,0.12739999999999901,-7.149529559629631,-2.03891802962963
mp-759566,FeOF,0.26030000000000003,-7.145113002777778,-2.034501472777778
mp-759503,FeOF,0.5585,-7.144449856111111,-2.033838326111111
mp-759961,FeOF,0.5836,-7.136303586388889,-2.025692056388889
mp-759606,FeOF,0.0,-7.114233917222222,-2.003622387222222
mp-759927,FeOF,0.0,-7.135599156388888,-2.024987626388889
mp-759475,FeOF,0.3078,-7.150404546944445,-2.039793016944445
mp-759659,FeOF,0.0,-7.132022701944444,-2.021411171944444
mp-759697,FeOF,0.745499999999999,-7.145523224166666,-2.034911694166666
mp-759778,FeOF,0.0,-7.14232751,-2.03171598
mp-759531,FeOF,0.0,-7.139390533518519,-2.028779003518519
mp-759595,FeOF,0.0,-7.143169362037037,-2.032557832037037
mp-759660,FeOF,0.0,-7.132288754814816,-2.021677224814815
mp-759880,FeOF,1.400299999999999,-7.155027110555555,-2.044415580555556
mp-759490,FeOF,0.0,-7.142425899814815,-2.031814369814814
mp-759497,FeOF,0.7965999999999991,-7.149804449444444,-2.039192919444444
mp-759546,FeOF,0.0,-7.1105904975,-1.9999789675000001
mp-759561,FeOF,0.35810000000000003,-7.150376597037037,-2.039765067037037
mp-759562,FeOF,1.8737,-7.160503178333333,-2.049891648333334
mp-759674,FeOF,0.0,-7.140380604814815,-2.029769074814815
mp-759971,FeOF,0.35199999999999904,-7.148906752592593,-2.038295222592593
mp-764510,FeOF,0.6323000000000001,-7.149819017592593,-2.039207487592593
mp-765134,FeOF,0.0,-7.142117402407408,-2.031505872407408
mp-765085,FeOF,0.0,-7.134627087777778,-2.024015557777778
mp-764890,FeOF,0.296699999999999,-7.139943962222222,-2.029332432222222
mp-763342,FeOF,1.072,-7.149746062777778,-2.039134532777778
mp-764813,FeOF,0.0,-7.129580944722223,-2.018969414722223
mp-764747,FeOF,0.0,-7.151183425833333,-2.040571895833333
mp-764940,FeOF,0.0,-7.127177361111112,-2.016565831111112
mp-777319,FeOF,0.0,-7.122811294444444,-2.012199764444444
mp-881183,FeOF,0.49770000000000003,-7.080568940833333,-1.969957410833333
mp-882928,FeOF,0.0,-7.142507187222223,-2.031895657222222
mp-1180571,Nb2FeO6,2.0635,-9.183649563333333,-2.699160972222222
mp-22366,Nb2FeO6,2.0862,-9.225335676111111,-2.7408470850000013
mp-504549,UFeO4,0.7501999999999991,-9.466019945,-2.873807404999998
mp-540077,Fe(PO3)4,0.010599999999999,-7.609393559117647,-2.344249596092436
mp-645545,Nb2FeO6,2.2534,-9.12583043361111,-2.6413418424999993
mp-754411,TaFeO4,0.0,-9.326069648333332,-2.637937519555554
mp-777513,Na2FeO2,1.2596,-5.691481511,-1.481604555551724
mp-1196271,FeAsO6,1.8860000000000001,-6.297992920625,-0.9445041990625
mp-1201612,CsFeO2,1.9751999999999992,-6.501029518749999,-1.6825493211637932
mp-12040,K5FeO4,2.298899999999999,-4.9395224209999995,-1.5476510366249991