Material_ID,Formula,Band_Gap,Energy_per_Atom,Formation_Energy_per_Atom
mp-1213605,FePO6,1.8192,-6.88837204484375,-1.441714449174107
mp-13745,Na5FeO4,2.1701,-5.1219836525,-1.624936740189654
mp-19511,Li5FeO4,3.0845,-5.822673701000001,-2.042025744666667
mp-558337,RbFeO2,1.556499999999998,-6.57811704640625,-1.741497723281249
mp-559464,KFeO2,2.1388,-6.60618519703125,-1.73185696134375
mp-559295,FePO4,2.6995,-7.938585249791667,-2.325695457232143
mp-760318,Na5FeO4,2.1683,-5.127441568000004,-1.630394655689659
mp-768830,Rb5FeO4,1.872799999999999,-4.7900695156249995,-1.473615956374999
mp-768853,Rb5FeO4,1.818,-4.73723286475,-1.420779305499999
mp-774374,Na3FeO4,0.410599999999999,-5.53255935140625,-1.496680905673491
mp-779889,Li5FeO4,3.1281,-5.734582384,-1.953934427666666
mp-850511,LiFeO2,1.9032,-6.93332735234375,-1.864610830677083
mp-1097023,KFeO3,0.5258,-6.158917163,-1.26986237345
mp-1101471,Rb2FeO4,1.7002000000000002,-5.748711122142857,-1.43114921142857
mp-1105437,SmFeO3,0.12739999999999901,-8.075469965,-2.468971893000001
mp-1172919,Fe(PO3)4,1.348999999999999,-7.060253860882353,-1.795109897857142
mp-1176389,Na2FeO3,0.2998,-5.889698688333333,-1.556807724626435
mp-1178214,FeSnO3,0.986399999999999,-7.288322943500001,-1.8236277275
mp-1178210,FeOF,1.2815,-7.220324301666667,-2.109712771666667
mp-1180433,NdFeO3,1.428,-7.8866556665,-2.2702453350000003
mp-1181002,LaFeO3,1.2424,-8.3961604495,-2.746178183500001
mp-1181413,FeHO2,0.906099999999999,-6.74039880125,-1.300121386562499
mp-1192780,Cr2FeO4,2.321399999999999,-8.893520267857143,-2.098097386428572
mp-1192775,FeSO5,0.0,-6.862665520357143,-1.527210405714286
mp-1205209,FeSO7,0.0,-6.01303918625,-0.7636938737499991
mp-1214471,BaFeO4,1.412299999999999,-6.762358839166666,-1.732218810833332
mp-1372708,MgFeO3,0.0,-6.961707060500001,-1.9728322125000002
mp-1373518,ZnFeO3,0.0,-6.333410405,-1.418680838
mp-17443,Cs2FeO4,0.0,-5.735952165714286,-1.439120684187192
mp-19115,CaFeO3,0.0,-7.2924198515,-2.2285190305
mp-19254,FeSO4,2.7173,-7.257987350833333,-1.857949884583333
mp-19320,K2FeO4,1.6183,-5.7895104321428565,-1.428852621357141
mp-19785,HoFeO3,1.5675,-8.4373758575,-2.855059119499998
mp-19853,TbFeO3,1.6263,-8.434927227,-2.844573657333333
mp-19935,ErFeO3,1.5703,-8.4404627115,-2.8641381045000003
mp-20073,TiFeO3,1.5848,-8.899765687999999,-2.657886439666666
mp-20243,SmFeO3,1.545,-8.4103017015,-2.803803629500001
mp-20361,FePO4,1.3138,-7.922906782916666,-2.310016990357142
mp-20407,NdFeO3,1.7349,-8.392816302,-2.776405970499999
mp-20651,TmFeO3,1.6368,-8.433557634,-2.874276493000002
mp-20783,YFeO3,1.5605,-8.7832628685,-2.818663723499999
mp-22283,DyFeO3,0.9134000000000001,-8.436198846,-2.849742895333331
mp-22341,PrFeO3,1.0793,-8.378956726,-2.757081589333333
mp-22588,LuFeO3,1.6083,-8.4465166745,-2.879398338833334
mp-22590,LaFeO3,1.433399999999999,-8.475136048,-2.825153782000001
mp-28696,K3FeO4,0.24329999999999902,-5.494960733125,-1.537963933343749
mp-30093,Ba3FeO5,0.0,-6.813835675555554,-2.484196669444442
mp-504142,Fe(PO3)4,0.6162000000000001,-7.599567782941176,-2.334423819915965
mp-504703,EuFeO3,0.0,-9.147178386,-2.426775158000002
mp-505819,TlFeO3,0.7036999999999991,-6.4935586285,-1.356483360166667
mp-605437,FeHO2,0.0,-6.989396923125,-1.549119508437499
mp-600576,GdFeO3,0.0,-10.275178546499998,-2.797173253499997
mp-601267,NdFeO3,0.0,-7.749117703,-2.132707371499999
mp-625242,FeHO2,0.0,-6.93446581875,-1.494188404062499
mp-625275,FeHO2,1.2851,-6.8169648975,-1.376687482812499
mp-645159,FeBiO3,1.541999999999999,-7.103591225,-1.6628035179999991
mp-753790,HfFeO3,2.3645,-9.562520446499999,-2.9083017955
mp-753856,HfFeO3,2.9099,-9.596060444999999,-2.941841794000001
mp-755324,Na2FeO3,0.0,-5.913816938333333,-1.5809259746264361
mp-756062,CeFeO3,0.6746999999999991,-8.719293432,-2.869122613
mp-769734,ScFeO3,1.7076,-8.6832404825,-2.7539658165
mp-770886,Li3FeO3,2.0511,-6.117245153571429,-1.9685776071428571
mp-776288,FePO4,1.9835,-7.917141039583332,-2.3042512470238092
mp-776476,CdFeO3,0.0,-6.170801069,-1.316018186
mp-780695,Na3FeO4,0.0,-5.514325746562499,-1.47844730082974
mp-1104802,Cr2FeO4,1.5987,-8.845589353571429,-2.050166472142857
mp-1191380,FeB4O7,2.6797999999999993,-8.412645777291667,-2.5940361665972222
mp-18949,VFeO4,0.0,-8.290820495,-2.066525278333333
mp-19074,TiFeO3,1.6437,-8.848473615,-2.606594366666667
mp-19044,Na2FeO4,1.142,-5.766399418571429,-1.345641306108374
mp-19112,FeSO4,2.2869,-7.256657027500001,-1.85661956125
mp-25303,FePO4,0.995499999999999,-7.920096833333333,-2.3072070407738092
mp-24992,FeHO2,0.8356999999999991,-6.43160885875,-0.9913314440624991
mp-28231,Ti2FeO5,1.518999999999999,-9.14590046625,-3.020799182708333
mp-555351,FeBiO3,0.0,-6.859807798,-1.4190200910000001
mp-696580,FeHO2,1.2204,-6.952588341875,-1.512310927187499
mp-754639,FeSeO4,0.9489000000000001,-6.633664460416667,-1.340701675807292
mp-755708,RbFeO2,0.39940000000000003,-6.45062697875,-1.614007655625
mp-757147,Na2FeO3,0.050999999999999004,-5.891737367499999,-1.558846403793102
mp-768478,CrFeO4,0.20120000000000002,-7.940278314166666,-1.621126197499999
mp-753787,Mn2FeO6,0.0,-7.845859632777778,-1.5701020967624522
mp-754373,Na2FeO3,0.14,-5.880750109166667,-1.547859145459769
mp-753096,Fe(CoO3)2,0.0,-6.90875268111111,-1.083794827777777
mp-1173115,TaFeO4,1.6022,-9.32647110125,-2.638338972472221
mp-1211341,Li3FeO6,0.0,-4.534462117999999,-0.14600653400000002
mp-1663732,Li3FeO3,1.5152,-6.084925033214286,-1.936257486785714
mp-674490,FeSbO4,1.0037,-7.232879218333333,-1.8344014733333331
mp-752939,FeOF,1.0019,-7.113845206666667,-2.003233676666667
mp-754261,La4FeO8,0.713499999999999,-8.461325892884615,-3.246115302884616
mp-760335,Li3FeO4,0.0,-6.01227255,-1.76369332125
mp-1181535,Fe(CO3)2,0.0,-7.396351144166668,-1.105782452500001
mp-1196665,Fe(CO3)2,0.08220000000000001,-7.228914802777776,-0.9383461111111101
mp-504276,FePO4,1.6399,-7.946608772499999,-2.333718979940476
mp-753636,FePO4,2.5545,-7.853944405833332,-2.241054613273809
mp-2767171,Mg4FeO5,0.5411,-8.729220892499999,-2.6356504094999993
mp-759914,FeOF,0.0,-7.133121480833334,-2.022509950833333
mp-891361,Na2FeO3,0.183899999999999,-5.967070486249998,-1.634179522543101
mp-1071505,Sr2FeO3,0.0,-7.013424665833334,-2.563631265
mp-1176388,Na2FeO2,0.0,-5.7447808590000005,-1.534903903551725
mp-1222163,Mg4FeO5,3.2858,-6.69506331125,-2.72189268175
mp-1276702,Li3FeO4,0.0,-6.008304231875,-1.759725003125
mp-755094,Li2FeO2,1.8966,-6.314733549,-1.877975758333332
mp-674482,MnFeO3,0.8193,-8.319443517249999,-1.824259613836207
mp-1011260,EuFeO3,0.0,-9.13360513,-2.413201902000001
mp-1221655,MnFeO4,0.0,-7.571250504999999,-1.333937084655172
mp-1276134,V2FeO4,0.7147,-8.783782354285714,-2.15097130142857
mp-1279232,Fe(NiO2)2,0.0,-6.976833657857142,-1.2879567164285701
mp-1307341,Mn2FeO4,0.0,-8.45906011,-1.803932136551724
mp-19398,FeAsO4,1.2997,-7.166225292777777,-1.677560665694443
mp-2628357,VFeO4,1.185099999999999,-8.251656060833334,-2.027360844166667
mp-690544,Ga2FeO4,0.5741,-6.966845545357144,-2.064265934642857
mp-35432,Cr2FeO4,0.0,-8.75342567,-1.958002788571429
mp-38856,Mn2FeO4,0.0,-8.539735776428572,-1.884607802980296
mp-753348,Fe(CoO2)2,0.270599999999999,-7.495087815714287,-1.419559434285716
mp-756527,LiFeO2,0.30560000000000004,-6.936101783124999,-1.867385261458332
mp-850978,VFeO4,1.7642,-8.230354720833335,-2.006059504166668
mp-1181856,FeBiO3,1.4146,-6.699512562000001,-1.258724855000001
mp-1178229,FeOF,1.0415,-7.100008763333333,-1.989397233333333
mp-1307551,Mn2FeO4,0.1935,-8.519005147142858,-1.863877173694581
mp-1274918,TiFeO4,0.0,-8.38355971125,-2.357333503472222
mp-760833,LiFeO3,0.30660000000000004,-6.478154222666665,-1.433588804333332
mp-771199,V3FeO8,0.39019999999999905,-8.514127600833334,-2.2386753125
mp-626379,FeHO2,2.0952,-6.796406669375,-1.356129254687499
mp-760343,FePO4,2.4854,-7.947011501666666,-2.334121709107143
mp-1178215,FeOF,0.0,-7.223928792500001,-2.1133172625
mp-601882,Fe(SbO2)2,1.393799999999999,-6.823824968571428,-1.6067010099999992
mp-655085,Fe(SbO2)2,0.0,-6.738634239285714,-1.521510280714285
mp-601376,Fe(SbO2)2,0.0,-6.4851608178571425,-1.268036859285713
mp-1273693,Na4FeO5,0.0,-5.30983548925,-1.452164554301724
mp-2408554,Na4FeO5,0.392999999999999,-5.331205495000001,-1.473534560051724
mp-1237867,FeHO2,1.67,-6.876654191875,-1.436376777187499
mp-626316,FeHO2,1.257499999999999,-6.9342437243749995,-1.493966309687499
mp-626307,FeHO2,1.7702,-6.8365373425,-1.396259927812499
mp-759165,Na4FeO5,0.0,-5.28980307875,-1.432132143801724
mp-759592,FeOF,2.4349,-7.219911235833333,-2.109299705833333
mp-1182718,FeBiO3,0.0,-3.70158609,1.739201616999999
mp-1181670,FeBiO3,0.7019000000000001,-5.417101346000001,0.023686360999999
mp-19026,Na4FeO3,1.187799999999999,-5.106673011875,-1.521574594439655
mp-540440,FeP2O7,0.0,-7.5869980465,-2.1933285169285712
mp-541930,Fe(PO3)3,2.793399999999999,-7.805626616794872,-2.4788503990201463
mp-558570,Na3FeO3,2.2633,-5.602999262142857,-1.6974183248768462
mp-675126,FeCO3,1.4102000000000001,-6.780641645,-0.27212770149999904
mp-705201,FePO4,2.7331000000000003,-7.932627574270833,-2.319737781711309
mp-704299,FePO4,2.7521,-7.936758440312499,-2.323868647752976
mp-752680,Li4FeO3,2.6567,-5.7757440853125,-1.907044623854166
mp-764074,Na2FeO3,1.8938000000000001,-5.9845288666666665,-1.6516379029597692
mp-764501,Na8FeO6,0.022399999999999,-4.786613307333335,-1.5271764094023
mp-837859,Fe(CO)5,2.2865,-7.798911540000001,-0.58498847659091
mp-21880,NaFeO2,0.780799999999999,-6.69776746,-1.770851460344827
mp-31218,K3FeO2,1.1592,-4.842456572083333,-1.215781174041666
mp-675006,FeOF,0.0,-7.204606493333333,-2.093994963333333
mp-768729,RbFeO2,2.1068,-6.60569164,-1.769072316875
mp-754222,NbFeO4,2.1062,-8.776183442916667,-2.38232173125
mp-1069079,FeBiO3,1.3463,-7.088385497,-1.64759779
mp-1046713,ZnFePO5,1.878099999999999,-7.158012745000001,-2.172382323705358
mp-1047490,YFe(WO4)2,2.4675000000000002,-9.1394407775,-2.432852343333333
mp-1097047,FeCu2BO5,0.0,-6.9600435022222245,-1.616973352685185
mp-1101540,LiFeP4O13,0.005900000000000001,-7.376465948289474,-2.304659040758145
mp-1101521,LiFeP2O7,2.0137,-7.498056641363636,-2.421182262965367
mp-1101560,LiFeP2O7,1.8744,-7.487545425454545,-2.410671047056276
mp-1173284,Sr2FeMoO6,0.6149,-7.771415679416667,-2.5325863264166673
mp-1176543,LiVFeO4,1.631199999999999,-7.726887253809523,-2.119073801428571
mp-1176772,LiFeP2O7,1.6172,-7.524391727272728,-2.447517348874458
mp-1177479,Li3V4FeO12,1.3631,-7.8041533125,-2.3087560050000002
mp-1179469,TiFe(BiO3)2,1.260599999999999,-6.968801298000001,-1.585466510333334
mp-1181303,FeSb(ClO)8,0.6699,-3.613123328333333,0.10749072111111001
mp-1220715,Nb3Fe(BiO3)6,2.3257,-7.611749790714286,-2.212555495
mp-1223042,Li2Fe(WO4)2,3.5503,-8.042711544615385,-2.059033433589743
mp-1225102,FeMo2H7O11,2.5715,-6.699769704523809,-1.540818523571428
mp-1225056,GaFe(BiO3)2,1.6718000000000002,-6.669200026,-1.772604837749999
mp-1273123,Li2TiFeO4,1.221199999999999,-7.5651934778125,-2.568293105312499
mp-1285010,Li2TiFeO4,1.522499999999999,-7.567042346875,-2.570141974375
mp-1282646,Sr2FeWO6,1.026999999999999,-8.071697325,-2.621619960000001
mp-1273740,Li2FeWO6,0.0854,-7.479047629999999,-1.985671309666666
mp-1278188,Li2TiFeO4,1.273599999999999,-7.5615060909375,-2.5646057184375
mp-1301347,Li2TiFeO4,1.6268999999999991,-7.5628693984375,-2.5659690259375
mp-1310691,Li2FeTeO6,0.0,-6.216823751750001,-1.704929865083333
mp-1346483,Li4FeO3F,0.07979999999999901,-4.698829541111111,-1.047335311481481
mp-1367805,Li7Fe(O2F)2,0.0079,-4.883215440357143,-1.636641865595237
mp-1376775,LiFeOF2,0.075099999999999,-5.2456305715,-1.414708605166666
mp-1445676,MgFePO5,1.8649,-7.546692240625,-2.514721018705357
mp-1567719,FeMo2H7O11,2.6523,-6.7007887297619035,-1.541024084226189
mp-1568159,Li3V4FeO12,1.3456000000000001,-7.817186471000001,-2.321789163500001
mp-1640734,YFe(WO4)2,0.04530000000000001,-9.172781919166667,-2.466193485
mp-1646935,Li2Fe(CoO3)2,0.9612,-6.689595489999999,-1.576643997878787
mp-1980704,Li2Fe(CoO3)2,0.0,-6.6647096,-1.5517581078787872
mp-1661760,Li2Mn3FeO8,0.350099999999999,-7.646009384642857,-1.9776093232471261
mp-1661648,LiFePO4,3.7629,-7.497895618928571,-2.414143958639454
mp-1982622,Li2FeP2O7,4.0783,-7.34059805375,-2.527719634662698
mp-2215958,MgTiFeO4,2.4409,-8.15240943,-2.7541483926190473
mp-2217105,MgFe(CoO3)2,0.0,-6.935484194999999,-1.5299751254999991
mp-2217346,MgFeP2O7,3.911299999999999,-7.6312510318181825,-2.5796905490259743
mp-2218071,MgFeAs2O7,1.8516,-6.796887605454546,-1.880845485
mp-2218871,MgV3FeO8,1.2605,-8.203829912307693,-2.285683952692308
mp-2219241,MgV3FeO8,0.6879999999999991,-8.168319717692308,-2.250173758076923
mp-2219356,MgV3FeO8,1.2949,-8.181528413076922,-2.263382453461539
mp-2219076,MgV3FeO8,0.7643000000000001,-8.17654491076923,-2.258398951153847
mp-2228347,MgFe(SbO3)4,0.433399999999999,-6.684119703888888,-1.9067848013888882
mp-2228453,MgMn4FeO8,0.0,-8.129209206428571,-1.9626206040517251
mp-2228847,MgFe(SbO3)4,0.397599999999999,-6.683522258888889,-1.906187356388888
mp-2229252,MgFe(SbO3)4,0.583699999999999,-6.686227737777778,-1.908892835277778
mp-2229756,MgFe(SbO3)4,0.6021999999999991,-6.665944608888889,-1.888609706388888
mp-2230001,MgMn5FeO12,0.8632000000000001,-7.957633698947369,-1.889944238666062
mp-2230269,MgFeCo5O12,0.2743,-6.8360911605263155,-1.302243429736842
mp-2230433,MgV5FeO12,0.6494999999999991,-8.406138212105262,-2.359003810263157
mp-2230762,MgMn5FeO12,0.5158,-7.950214531578948,-1.882525071297641
mp-2230889,MgV5FeO12,0.9264000000000001,-8.405451656315789,-2.358317254473684
mp-2239864,MgFe(CoO3)2,0.761899999999999,-6.759785009,-1.354275939499999
mp-26546,LiFeP2O7,2.2582,-7.565167839545453,-2.488293461147185
mp-26326,LiFeP2O7,2.5998,-7.567803870454545,-2.490929492056276
mp-26902,Li3FeP2O9,0.0279,-6.944270664,-2.306978270285715
mp-611630,CaFeClO2,0.37020000000000003,-6.469979931,-2.025962751
mp-694564,Li2Fe(PO3)8,0.0,-7.330437274285714,-2.3486452952517
mp-690817,SrFeMoO5,2.2075,-7.862786345,-2.144298290625
mp-705398,LiFeP4O13,0.0,-7.367243104605264,-2.295436197073936
mp-697811,Li2FeP2O7,2.9154,-7.357781921041667,-2.544903501954365
mp-752646,Li3Fe(BO3)2,2.466199999999999,-7.2303432075,-2.460064925694444
mp-752780,Li8FeCo3O8,2.003,-5.9478638985,-1.711596781333333
mp-754123,Li4FeCo3O8,0.9578000000000001,-6.493101370624999,-1.674998190833332
mp-754420,Li7FeO5F,0.7191999999999991,-5.546685112857143,-2.083389493095239
mp-755173,Li4FeO3F,2.593899999999999,-5.820411896666666,-2.168917667037037
mp-755400,Li8FeO5F,2.7157,-5.50331735,-2.143646580444445
mp-755848,Li2CrFeO4,1.9918,-7.380050727083334,-2.163455922916668
mp-756153,Li3Fe(SbO3)4,0.0,-6.47440377775,-1.969987436249999
mp-756149,Li3Nb4FeO12,0.0,-8.438969579,-2.7400924775
mp-757357,Li6FeO5F,0.0,-5.587393807692308,-2.004531053076924
mp-758649,Li4Fe(PO3)6,4.6312,-7.325334839655173,-2.578374428661741
mp-758847,Li3Fe(PO4)2,2.2422,-7.107822138392857,-2.492720359770408
mp-759108,Li2Fe(PO4)2,0.0,-7.184717280961538,-2.361447893727105
mp-759547,Li4FeCo9O20,0.004900000000000001,-6.700056732352941,-1.427536636568628
mp-759661,Li7FeO5F,0.2303,-5.557902945892858,-2.094607326130953
mp-759913,Li5Cr3FeO8,2.405399999999999,-7.277256442058823,-2.185640795392157
mp-761944,Li2FeCo3O8,0.28439999999999904,-6.7941430417857145,-1.560442674404762
mp-764262,Li10FeCo9O20,0.15259999999999901,-6.489961298,-1.721980786583333
mp-763959,Li3Mn3FeO8,0.48479999999999907,-7.392601580666667,-1.974833332252874
mp-764903,Li6FeO5F,0.0,-5.576964385769231,-1.994101631153847
mp-767722,VFe(P2O7)2,1.2889,-7.899898724250001,-2.475534951678572
mp-768894,Li4Cr3FeO8,1.7827000000000002,-7.5594497246875,-2.268915779270833
mp-769659,Li2TiFeO4,0.0947,-7.52532851375,-2.52842814125
mp-769975,Li2Cr3FeO8,0.0,-7.8373516371428575,-2.063730394761904
mp-771819,LiFe(SO4)2,2.056699999999999,-6.802955980555556,-1.9496767095833332
mp-772138,LiFePO4,3.4288,-7.512960397857142,-2.4292087375680262
mp-776318,Li2FeNi3O8,0.08,-6.269778467678571,-1.326066680297618
mp-776460,Li4Fe(WO4)3,1.554999999999999,-7.9276624945,-2.209880723166666
mp-776489,Li2FeO2F,2.0577,-6.26574102,-2.249467465277777
mp-777653,Li2Cr3FeO8,0.101899999999999,-7.891030799464285,-2.117409557083332
mp-777889,Li4Fe(TeO4)3,0.0,-6.020882142,-1.775324021166666
mp-778021,Mn7Fe(PO4)12,0.0,-7.694319216323529,-2.178261292812228
mp-778884,LiFeBO3,2.7377000000000002,-7.598760313518518,-2.281723836435185
mp-779787,LiFeOF2,1.8972000000000002,-6.285912854,-2.454990887666667
mp-781596,LiFeOF2,1.7349,-6.30407656775,-2.473154601416667
mp-782726,LiFeP2O7,1.4647000000000001,-7.519895692386364,-2.443021313988095
mp-807564,Li4FeO3F,0.0,-2.78185504,0.869639189629629
mp-807581,LiFeOF2,0.0,-4.815805640500001,-0.9848836741666671
mp-831266,LiFeP2O7,1.2947,-7.510509290000001,-2.433634911601731
mp-849415,LiFeP2O7,1.4159000000000002,-7.522952388181818,-2.446078009783549
mp-849452,LiFeP2O7,1.743199999999999,-7.528903276022728,-2.452028897624458
mp-849555,LiFeP2O7,1.7515,-7.524341075113636,-2.447466696715366
mp-849490,LiFeP2O7,1.4128,-7.516076927272727,-2.439202548874458
mp-849557,LiFeP2O7,1.5473,-7.5203869740909095,-2.4435125956926402
mp-850795,Li7Fe(O2F)2,2.6388,-5.51414236,-2.267568785238095
mp-849740,LiFe(SO4)2,2.0753,-6.795283525555556,-1.942004254583333
mp-856325,Li7Fe(O2F)2,0.0,-4.116306793928572,-0.869733219166666
mp-1177788,Li2VFeO4,1.1175,-7.3449418600000005,-2.199489730833334
mp-1227247,Ca4Ti3FeO12,0.0,-8.179639862,-3.20191842
mp-1279363,LiFeOF,1.474799999999999,-6.534190236875,-2.224000872708333
mp-1304638,Li3Cr3FeO8,0.0,-7.691074353333333,-2.175099669333333
mp-2222938,MgFeCoO4,1.4403000000000001,-7.183929492857143,-1.894536355
mp-2225382,MgFeCoO4,0.0,-7.062186467142857,-1.772793329285714
mp-2222767,MgFeSbO4,0.0,-6.71598831,-1.8557973835714292
mp-2241408,MgFeCoO4,0.9817,-5.605585487142856,-0.31619234928571405
mp-753409,Li2FeCoO4,0.844399999999999,-6.672457592500001,-1.770816632083334
mp-754100,Li2FeCuO4,0.0,-6.1776401975,-1.655275493333333
mp-754241,Li4Cr3FeO8,2.381999999999999,-7.583513128124999,-2.292979182708333
mp-754391,Li2TiFeO4,0.9156999999999991,-7.5578251653125,-2.5609247928125
mp-757287,Li3Fe(Ni2O5)2,0.0,-6.127059121944445,-1.3050065341666661
mp-754607,Li2MnFeO4,0.225699999999999,-7.177267356250001,-2.022051574324713
mp-755008,Li2FeNiO4,0.0,-6.4119194525,-1.679438497083333
mp-755048,Li2CrFeO4,1.8130000000000002,-7.38656313625,-2.169968332083334
mp-1641158,Sr6Ti3FeO14,0.0034999999999990004,-7.865917763541667,-3.216646102291667
mp-1216330,VFeSbO6,0.20190000000000002,-7.766761148333334,-2.058906198333334
mp-1216868,TiFeSbO6,1.395899999999999,-7.937578323888889,-2.361769379814815
mp-1217927,TaTiFeO6,1.3284,-9.358597335,-2.9230188017407412
mp-1226257,CrFeTeO6,1.5522,-7.460364301666666,-1.798793123518517
mp-1216798,TiNbFeO6,1.241299999999999,-9.0299734775,-2.790575222314815
mp-1218098,SrNdFeO4,0.494299999999999,-7.814035394285715,-2.853686715357143
mp-1218154,SrLaFeO4,0.516199999999999,-7.886762471428571,-2.902433839285714
mp-1218478,Sr3MnFeO7,0.0,-7.27335924,-2.494605256077586
mp-1218421,Sr3FeMoO7,0.0,-7.529014736666665,-2.609957851249999
mp-1218521,Sr3TaFeO7,0.0,-8.0263661975,-3.02220285936111
mp-1218461,Sr3FeRuO7,0.0,-7.193355198333333,-2.405235610416666
mp-1218828,Sr2FeO3F,0.626,-6.977596956785713,-2.890080845357141
mp-1224899,FeRe(PbO3)2,0.0,-7.474824434999999,-1.671704876249999
mp-1223077,La4Fe(NiO5)2,0.0,-8.027999354117648,-2.7777679988235313
mp-1227068,CaLaFeO4,0.47079999999999905,-7.934797361428571,-2.9057299021428573
mp-1227839,BaLaFeO4,0.6856999999999991,-7.843783514285714,-2.827091046428571
mp-1101161,ZnFe(PO4)2,0.0,-7.215109307083332,-2.203075981190475
mp-1178258,FeCSO7,0.8654000000000001,-7.267978948,-1.620701617499999
mp-1178211,FeSn(PO4)2,1.6008,-7.616064564583333,-2.374878884940475
mp-1192804,KFeS2O9,0.18050000000000002,-6.464537839615384,-1.663787138634615
mp-1212794,FeAs2Pb2O9,0.0,-6.6101703317857154,-1.626798227499999
mp-1214659,Ba2V2FeO9,0.29999999999999905,-7.9116924228571435,-2.554018688928572
mp-1286896,LaFeAsO,0.0,-7.50938516375,-1.7533572006250011
mp-1372141,Ca2FeSbO6,1.495299999999999,-7.148562398,-2.5187635740000003
mp-1369579,Mg2FeSbO6,1.5606,-6.8284948105000005,-2.2737219595