Material_ID,Formula,Band_Gap,Energy_per_Atom,Formation_Energy_per_Atom
mp-648069,Ca2GaFeO5,0.189699999999999,-7.087182018333333,-2.615057349722223
mp-654225,KFe(SeO3)2,2.2925,-6.19782696125,-1.5697289694437502
mp-746071,KFePO4,3.6477,-7.332033270357143,-2.359360630627551
mp-752412,Li2FeBO4,2.4156,-7.134278645625,-2.289390803854166
mp-746030,NaFePO4,3.582099999999999,-7.409096787499999,-2.406373996931737
mp-735518,FeH2Cl5O3,0.0,-3.683730813409091,-0.106738049545454
mp-757019,LiFePO4,3.6715,-7.507759908214285,-2.424008247925169
mp-757567,LiFeCO4,1.9645000000000001,-7.537848297499999,-1.909354927619046
mp-758930,Na5FeHO4,1.5199,-5.016743722954545,-1.528958671876959
mp-758685,LiFe(PO3)3,3.9103,-7.5940853485714275,-2.511441513018706
mp-758932,Li5FeHO4,2.489999999999999,-5.595132116590909,-1.8495279345833322
mp-765510,LiFePO5,0.0,-7.2235339578125,-2.156756129434524
mp-768290,Li2FeBO4,2.387,-7.104547860625,-2.259660018854166
mp-770739,LiTiFeO4,2.2668,-8.032562696785714,-2.594522680595237
mp-780202,Li2FeO2F,1.6775,-6.333073512916666,-2.316799958194444
mp-774462,LiFePO5,0.0,-7.240082150625001,-2.173304322247024
mp-776554,LiFeBO4,0.06669999999999901,-7.328923154999999,-2.064611745357141
mp-818685,Cr2FeNO8,0.0,-7.207637465625001,-0.8994639710416661
mp-831160,LiFePO4,3.829,-7.533391079642857,-2.449639419353741
mp-880385,NaFe(SeO3)2,2.278299999999999,-6.1949088945,-1.545775797106681
mp-1188475,Cs2FeCl5O,0.22939999999999902,-4.152782016111111,-1.433154087701149
mp-1189477,Cs2FeOF5,0.0,-5.067329982222223,-2.311418956590039
mp-1209480,Rb2FeOF5,0.0,-5.020731417777778,-2.248696725
mp-1218176,SrLaFeO4,0.5932000000000001,-7.879116708571429,-2.894788076428571
mp-1297690,KLi2FeO3,2.1349,-5.885635721428572,-1.848047195559524
mp-1297347,Sr2FeSnO6,0.0,-6.92846861725,-2.37324708975
mp-18951,LiFePO4,3.574599999999999,-7.547769115714286,-2.464017455425169
mp-731573,Rb2FeOF5,0.0,-5.095033181666666,-2.322998488888888
mp-753321,LiFePO4,3.814899999999999,-7.489416094285714,-2.405664433996597
mp-753672,NaFePO4,3.140099999999999,-7.408176486428571,-2.405453695860308
mp-756201,LiVFeO4,2.2232,-7.818202008571428,-2.210388556190476
mp-18038,KBaFeO3,0.5118,-6.55775580625,-2.163714324958333
mp-753064,Li2Ti2FeO6,1.9776999999999991,-8.023750995,-2.772240358030303
mp-754946,Li2Cr2FeO6,0.33230000000000004,-7.610092972727273,-2.039026798787878
mp-754476,Li2Mn2FeO6,0.0,-7.4113104100000005,-1.9295228138662481
mp-756434,Li2Fe(NiO3)2,0.0007999999999990001,-6.260267102727273,-1.393366526969696
mp-757742,Li2Fe(CoO3)2,0.0,-6.701794806818182,-1.5888433146969692
mp-1218333,Sr4FeMoO8,0.720599999999999,-7.396320703571429,-2.7056727235714293
mp-1218399,Sr4FeRuO8,0.0,-7.135701512857142,-2.557285502142856
mp-1218412,Sr4TaFeO8,1.7730000000000001,-7.8287053064285725,-3.065108938380952
mp-1218072,Ta4FeCoO12,2.2555,-9.7445959325,-2.942002590240741
mp-1272771,LiFeOF,1.7099000000000002,-6.557600035,-2.2474106708333332
mp-1292063,Sr2TiFeO6,0.0,-7.824271186999999,-2.880457643333333
mp-1272721,Sr2FeSnO6,0.0,-6.929724989,-2.3745034615
mp-1274243,Sr2FeSnO6,0.0,-6.933793983999999,-2.378572456499999
mp-2228454,La4MgFeO8,1.0145,-8.268727382857142,-3.309569691071428
mp-2228462,La4MgFeO8,0.0,-7.721980832142856,-2.762823140357143
mp-756904,LiLa4FeO8,0.904799999999999,-8.233859543571429,-3.254812362380952
mp-560924,K2NaFeO3,0.0,-5.528053986071429,-1.682573350482759
mp-756221,K2LiFeO3,2.0745,-5.6734777725,-1.746968267190476
mp-1218832,Sr2EuFeO5,0.0,-7.908352448333334,-2.699153078333334
mp-1274766,Sr2FeSnO6,0.0,-6.928722019,-2.373500491499999
mp-1292799,Sr2FeSnO6,0.0,-6.93945258375,-2.384231056249999
mp-2896279,Sr2FeSnO6,0.0,-12.850035754250001,-2.323534076250001
mp-1043944,LaFeMoO6,1.4188,-8.394943166111112,-2.40167156
mp-1044002,LaTaFeO6,0.0,-8.892989656666666,-2.786242780259259
mp-1043919,LaFeWO6,1.7784,-8.760636697777777,-2.532645078333333
mp-1044028,LaFeBiO6,0.0,-6.886939801111111,-1.666514395
mp-1043955,LaFeReO6,0.0,-8.598399551666667,-2.427076379166666
mp-1043966,LaVFeO6,0.0,-8.173070897777778,-2.3755486294444452
mp-1043995,LaFeSbO6,0.0,-7.434684038333334,-2.187706751111111
mp-1043807,LaFeTeO6,1.9386,-7.324625624444445,-2.187170042407407
mp-1222986,Li3Fe(MoO4)3,2.304,-7.67190900881579,-2.087210471973685
mp-1343817,CaFeReO6,0.685099999999999,-8.102324854444444,-2.256602484722222
mp-1368738,CaFeMoO6,0.0,-7.700246623888889,-2.032575820555555
mp-1378182,LaCrFeO6,0.5343,-7.9635435605555545,-2.102783358888888
mp-26358,LiFeP2O7,2.5393,-7.563303668863636,-2.486429290465366
mp-26559,LiFePO4,3.415899999999999,-7.524896560357142,-2.441144900068026
mp-559328,FeH4C3O5,2.6484,-6.854847095769231,-1.125886444423078
mp-756958,LiFePO4,3.593999999999999,-7.555428175714285,-2.471676515425169
mp-758494,Li2Fe(PO3)5,0.5941000000000001,-7.468471596304347,-2.530008568255692
mp-759639,Li3Fe(PO4)2,1.847999999999999,-7.157157197678571,-2.542055419056122
mp-758186,Li3Fe(PO4)2,2.2509,-7.162375004642857,-2.5472732260204083
mp-765627,LiFePO4,3.5691,-7.512186905,-2.428435244710884
mp-764977,Li2FeOF3,2.4987,-5.922432629285715,-2.639949047380952
mp-766136,LiFeP2O7,2.4911,-7.557449868181819,-2.480575489783549
mp-766462,Li2FePO5,2.189,-7.127702784722222,-2.411797729867724
mp-768289,Li2FeBO4,2.7028,-7.15519842125,-2.310310579479166
mp-780523,LiFe(SO4)2,1.954699999999999,-6.7964628484375,-1.943183577465277
mp-779349,LiFeOF2,1.8035,-6.283632246000001,-2.452710279666667
mp-559729,K2Fe(CO)4,3.5061,-6.965761196363636,-0.8349187740454541
mp-1225111,FeCu2SbO6,0.35700000000000004,-6.461136348249999,-1.412616166249999
mp-1281007,LaFeAsO,1.285599999999999,-7.523630848125,-1.767602885000001
mp-1178657,ZnFeO2F5,1.7122000000000002,-5.217273393888889,-1.9733902044444442
mp-1215793,ZnCrFeO4,1.3234,-7.60930556,-2.012926087142856
mp-1215743,ZnGaFeO4,0.0,-6.605531186071428,-1.955573348571428
mp-1219197,Sm2FeSbO7,1.797099999999999,-7.993322945909091,-2.8413300590909083
mp-1217709,Tb2FeSbO7,1.3076,-7.874833040454546,-2.7375169739393943
mp-1216121,Y2FeSbO7,1.8064,-8.337354384545455,-2.859815067727272
mp-1216396,VFeCoO4,0.0,-8.056974232857142,-1.702804515714286
mp-1220431,Nd2FeSbO7,1.3969,-7.970291234545454,-2.809287202727271
mp-1219865,Pr2FeSbO7,1.7804000000000002,-7.951448359090909,-2.7854763225757573
mp-1222047,MgCrFeO4,1.7536,-8.00629611,-2.356955722142856
mp-1221831,MnGaFeO4,1.5104000000000002,-7.776679278571428,-1.997825486490147
mp-1221897,MnFeNiO4,0.0,-7.801452552142857,-1.629450094704433
mp-1224759,Gd2FeSbO7,1.8178,-9.694451140454545,-2.841088052727272
mp-1225341,Dy2FeSbO7,1.796,-7.866773009090909,-2.733000232575756
mp-1224545,In2FeSbO7,0.5701,-6.634465419090909,-1.838729330757575
mp-1224078,InFeCoO4,1.746999999999999,-7.090012585000001,-1.639376057380953
mp-1224929,GaFeNiO4,0.0,-7.071449641428572,-1.7757213653571422
mp-1224105,Ho2FeSbO7,1.3926999999999992,-7.878340649999999,-2.748330794090907
mp-1225440,Eu2FeSbO7,0.0,-8.695364235909091,-2.53073029818182
mp-1225637,Er2FeSbO7,1.5915,-8.004257066363637,-2.879694602272727
mp-1226366,CrFeCoO4,1.0128,-8.219868724285714,-1.784393092857142
mp-752488,Li3FeOF3,3.5132,-5.7582758556249996,-2.647487363125
mp-752610,Li2CrFeO4,1.643199999999998,-7.385504185,-2.168909380833334
mp-753174,LiFeNiO4,0.0,-6.526161515,-1.390315118333333
mp-753432,LiMnFeO4,0.6476000000000001,-7.559757661428571,-1.9407857487520521
mp-752855,LiTiFeO4,1.6631,-7.9814407053571435,-2.543400689166666
mp-755826,Li2FeCuO4,0.0,-6.1775104925,-1.655145788333333
mp-756311,LiFeSnO4,1.7377,-6.896189788928571,-2.013281224404761
mp-755275,LiFeNiO4,0.0,-6.572267982857143,-1.436421586190476
mp-754600,LiCrFeO4,0.169599999999999,-7.671089727857143,-1.9819703611904762
mp-754546,LiNbFeO4,0.7925000000000001,-8.192865930714285,-2.439709768333333
mp-755006,Li2FeP2O7,4.1132,-7.345363066875,-2.532484647787698
mp-755965,LiTiFeO4,1.875499999999999,-8.055578582142857,-2.617538565952379
mp-772649,LiVFeO4,2.464899999999999,-7.812612293571428,-2.204798841190476
mp-761710,LiFeCoO4,0.039999999999999,-6.897606967142857,-1.56843485047619
mp-770627,Li2MnFeO4,0.1976,-7.176378583750001,-2.021162801824713
mp-772093,LiFePO4,3.3709,-7.472104038214285,-2.388352377925169
mp-850214,LiFeCoO4,0.7167,-6.9051893007142855,-1.576017184047618
mp-775462,LiFeCuO4,0.0,-6.299034981428571,-1.403321443333332
mp-881807,Li2VFeO4,0.7824999999999991,-7.343470948125,-2.198018818958333
mp-775175,LiVFeO4,1.214799999999999,-7.786106048571428,-2.178292596190476
mp-774920,LiFeSbO4,1.3545,-6.851851970357143,-1.951882065119047
mp-850401,Li2FeOF3,2.3571,-5.9614755875,-2.678992005595238
mp-773482,Li2V3FeO8,1.2138,-7.997840082678572,-2.346177711726191
mp-1280283,FeRe(PbO3)2,0.0,-7.476347842,-1.673228283249999
mp-1182005,CaFeClO2,0.0,-6.412340707,-1.968323526999999
mp-1217245,Ti3Fe(BiO3)5,1.6518000000000002,-7.5734302029166685,-2.330676707708334
mp-1219542,RbTi3FeO8,2.2955,-8.584305469230769,-2.990403979038461
mp-1222378,LiTiFeO4,2.0237,-8.034574362857143,-2.596534346666666
mp-1220877,NaTi3FeO8,2.0839,-8.613533346923075,-2.991848263952254
mp-1223574,KFeSn3O8,1.4194,-6.73068047,-2.02192704401923
mp-1223303,KTi3FeO8,2.3423,-8.602283778461539,-2.996779545942307
mp-1235595,LiTiFeO4,1.565599999999999,-8.003296355714285,-2.565256339523809
mp-1291335,LiFeBO3,3.056499999999999,-7.643530792777778,-2.326494315694445
mp-1295166,Sr2FeCoO6,0.0,-6.9525939375,-2.084987923500001
mp-1312000,La4FeSe6O,1.620899999999999,-6.745531807916667,-2.2340751828385432
mp-1391360,CaFeWO6,0.0,-8.043947694444444,-2.141556877777776
mp-2217446,MgFe(CoO3)2,0.0,-6.9050302110000015,-1.4995211415
mp-2218985,MgV3FeO8,1.0783,-8.235605586923077,-2.317459627307693
mp-2223637,MgFe(CoO3)2,0.038699999999999006,-6.866711733,-1.4612026635
mp-2224450,NaMgFeO2,0.0,-5.870140768,-1.602513965275861
mp-2225918,MgFeAgO2,0.0,-5.927123281999999,-1.359253099333332
mp-2222837,MgFe(CoO3)2,0.0,-6.922385516999999,-1.5168764474999992
mp-2227860,SrMgFeO3,1.6425,-6.913899856666667,-2.474432801666667
mp-2227000,MgV3FeO8,0.8585,-8.235067236153846,-2.316921276538462
mp-2228508,MgMn4FeO8,0.33290000000000003,-8.084729182142857,-1.91814057976601
mp-2230727,MgMn5FeO12,0.0333,-7.950667318947368,-1.8829778586660622
mp-2230317,MgFeCo5O12,0.6374000000000001,-6.827272969473684,-1.29342523868421
mp-2230781,MgFeCo5O12,0.0,-6.8295521699999995,-1.295704439210526
mp-2241597,Sr2MgFeO4,1.2241,-6.72167102625,-2.562022098125
mp-2239949,MgFe(CoO3)2,0.243099999999999,-6.934725467,-1.5292163975
mp-2240957,NaMgFeO2,0.0,-5.861726052,-1.594099249275861
mp-2240242,MgFe(CoO3)2,0.0,-6.9676320910000005,-1.5621230215000002
mp-26576,Li2Fe(PO4)2,0.0,-7.198086459230769,-2.374817071996336
mp-2233886,MgMn3FeO8,0.324599999999999,-7.817641983076923,-1.8814708183687001
mp-755038,Li5FeO3F2,2.7258999999999993,-5.680170159090909,-2.345058949242424
mp-754295,Li3FeOF4,2.3917,-5.739611488888889,-2.7618158983333343
mp-756697,Li2V3FeO8,0.0,-7.907693407142857,-2.256031036190476
mp-759422,Li4FeOF5,1.5943,-5.5886455339393954,-2.804742301515152
mp-769470,Li11Fe(WO4)7,2.8156,-7.7561725044680845,-2.251534366312056
mp-766386,Mn3Fe(PO4)4,0.6661,-8.105381962916667,-2.4059929100985222
mp-780672,Li2FeOF3,2.0131,-5.949795342142857,-2.667311760238095
mp-2210710,MgFePO4,0.013500000000000002,-7.32002191142857,-2.276049229948979
mp-39995,SrNbFeO6,0.0,-7.849967793333333,-2.299798863333333
mp-761486,LiFePO4,3.5727,-7.539925430714285,-2.456173770425169
mp-754357,LiFePO4,3.0111,-7.479695267857143,-2.395943607568026
mp-1274143,Sr2FeWO6,2.0959,-8.109602552,-2.659525187
mp-18857,Sr2FeMoO6,0.0,-7.770334577999999,-2.531505224999999
mp-552162,Sr2FeReO6,0.0,-7.9415584277499995,-2.542482665
mp-754592,Li4FeOF4,2.618,-5.6315445435,-2.760636225333333
mp-778748,Li3FeBO4,3.1401,-6.759682925,-2.241013413796296
mp-1177821,Li2V3FeO8,1.282799999999999,-7.986436184285715,-2.3347738133333342
mp-1218733,Sr9Fe(PO4)7,1.4627,-7.624571162222223,-3.176724565833333
mp-1226269,Cs4Fe(MoO4)3,3.0126,-7.315801195000001,-2.115080500931035
mp-1247728,LiV2FeO7,2.2984,-7.976251148636364,-2.232389034848485
mp-1296462,La4FeSe6O,1.610199999999999,-6.745275298541667,-2.233818673463543
mp-1306478,Li2TiFeO4,1.347999999999999,-7.56714183375,-2.57024146125
mp-1661345,LiFe(PO3)3,4.1654,-7.605028074642858,-2.522384239090136
mp-1980018,Li2Fe(CoO3)2,0.6593,-6.623001695909091,-1.5100502037878791
mp-1661410,Li2Mn3FeO8,0.35339999999999905,-7.644741635357143,-1.976341573961412
mp-1301965,LiFePO4,3.5414,-7.502310890357143,-2.418559230068027
mp-26335,LiFe(PO3)4,2.7104,-7.608953506944443,-2.530266271494708
mp-31837,LiFeP2O7,2.4284,-7.558800978636364,-2.481926600238094
mp-585319,LiFePO4,3.5877,-6.769079712946429,-1.685328052657312
mp-694615,LiFePO4,3.5227,-7.007868524196428,-1.924116863907312
mp-694534,LiFeP2O7,1.5142,-7.464344750454544,-2.387470372056276
mp-689979,LiFeP2O7,1.3771,-7.442670434999999,-2.36579605660173
mp-746690,FeP3(H2O3)3,2.1041,-6.450573905000001,-1.733779722706767
mp-753230,LiFe(CO3)2,2.298499999999999,-7.6881008795,-1.835696770333334
mp-754677,Li2FeO2F,2.0806,-6.267691313333334,-2.251417758611111
mp-756232,Li4FeO3F,2.5637,-5.818915142777778,-2.167420913148149
mp-759033,LiFe(PO3)4,2.502799999999999,-7.601726548888889,-2.523039313439154
mp-758555,LiFe(PO3)3,3.6596,-7.585412968571428,-2.502769133018707
mp-759765,Li5FeNi3O8,0.0,-6.019349205,-1.61118840362745
mp-762856,Li2Fe(PO4)2,0.014100000000000001,-7.1945784530769235,-2.37130906584249
mp-761763,Li2FeCo3O8,0.4375,-6.757410919642857,-1.523710552261905
mp-772210,LiFePO4,3.6094,-7.54875622,-2.465004559710883
mp-772069,LiFePO4,3.2762000000000002,-7.469066991428571,-2.385315331139455
mp-772421,KLi2FeO3,2.1092,-5.868197260714285,-1.8306087348452382
mp-769658,Li2TiFeO4,1.1679,-7.56055099625,-2.56365062375
mp-775335,Li2Cr3FeO8,0.5364,-7.8826977825,-2.109076540119047
mp-777279,Li5FeOF5,4.355,-5.497406983125,-2.786418781180555
mp-779064,Li4FeOF5,3.0215,-5.57319293,-2.7892896975757573
mp-777049,LiFeBO3,3.1615,-7.649177095,-2.332140617916666
mp-849459,Li2FeO2F,1.8784,-6.30254971,-2.286276155277777
mp-1176679,LiFeSnO4,2.420099999999999,-6.863888363214285,-1.9809797986904751
mp-754807,LiFeSbO4,1.4499,-6.849576020714285,-1.9496061154761901
mp-756415,LiNbFeO4,2.2421,-8.248900056428571,-2.495743894047618
mp-757050,LiFeCoO4,0.0,-6.85830238107143,-1.529130264404762
mp-1176678,LiFeSnO4,1.3519,-6.824649158571428,-1.9417405940476191
mp-756289,LiMnFeO4,1.4493,-7.502509234285715,-1.8835373216091962
mp-754281,LiCrFeO4,0.7248000000000001,-7.640308201428572,-1.9511888347619042
mp-775811,LiVFeO4,1.185,-7.7705885725,-2.162775120119047
mp-765593,LiFePO4,3.7009,-7.475668094642857,-2.391916434353741
mp-773989,LiTiFeO4,2.125,-8.044698452857142,-2.606658436666666
mp-771892,LiNbFeO4,2.5759,-8.2433779575,-2.490221795119047
mp-775461,Li2V3FeO8,1.2357,-7.995743370178572,-2.344080999226191
mp-777396,Li2Mn3FeO8,0.8879999999999991,-7.672434591071428,-2.004034529675697
mp-1218493,Sr6Ti3FeO14,0.0,-7.865852581458333,-3.216580920208333
mp-1225028,FeCo(BiO3)2,0.5354999999999991,-6.82602624,-1.518898982000001
mp-2225597,MgFeBiO3,0.0,-6.348112173333334,-1.542377415
mp-2226121,MgFeBiO3,0.0,-6.129296771666667,-1.323562013333333
mp-1272202,FeMoClO4,1.8735,-7.588823298571429,-1.737958727142857
mp-605060,CeFeAsO,0.0,-7.703589495,-1.697325840625
mp-1076163,Sr4Ca4Mn7FeO20,0.0,-7.699174440833334,-2.522633878764368
mp-1076197,Sr2Ca2Mn3FeO10,0.0,-7.651455247152778,-2.494136742919061
mp-1076449,SrCa7Mn7FeO20,0.0,-7.734662282222222,-2.532024070986589
mp-1076479,Sr3Ca5FeCo7O20,0.0,-6.9594295865277775,-2.168639530416666
mp-1076750,Sr3Ca5Mn7FeO20,0.0,-7.709622664583334,-2.52438288612548
mp-1099665,Sr2Ca2FeCo3O10,0.0,-7.011898408888889,-2.192679666666667
mp-1099672,Sr5Ca3Mn7FeO20,0.0,-7.689006630277778,-2.521165284597701
mp-1099653,Sr2Ca6FeCo7O20,0.0,-6.970056661388889,-2.1705673888888892
mp-1099810,Sr2Ca6Mn7FeO20,0.0,-7.721322775902777,-2.527383781056034
mp-1099704,La7SmMn7FeO20,0.0013000000000000002,-8.759439294444444,-2.902939732653258
mp-1100009,Sr4Ca4FeCo7O20,0.0,-6.948047262222222,-2.1659564225
mp-1099831,Ca7MgMn7FeO20,0.0,-7.692455447708334,-2.49153829411159
mp-1099847,SrCa7FeCo7O20,0.0,-6.988758326180555,-2.180569837291666
mp-1099907,Ca7MgFeCo7O20,0.0,-6.954669868333334,-2.148202437083333
mp-1100047,La5Sm3Cr7FeO20,0.062999999999999,-8.76574665840278,-2.825847560347224
mp-1099816,Sr5Ca3FeCo7O20,0.0,-6.9354626631944445,-2.162071039861112
mp-1172969,Li2FePO4F,4.2299,-6.9523722644444454,-2.573590390701058
mp-1173827,NaCdFe(PO4)2,1.8944,-7.074734036923077,-2.368088862358847
mp-1173765,Na2TiFe(PO4)3,2.272599999999999,-7.699871145789475,-2.717191807895818
mp-1173862,NaCdFe(PO4)2,0.24719999999999903,-6.316861448205128,-1.6102162736408991
mp-1176442,Na2FePCO7,2.4267,-7.26872109875,-2.23261036374179
mp-1176405,Na2FePCO7,0.3952,-7.275183703124999,-2.239072968116789
mp-1176445,Na2FePCO7,2.372,-7.273329943749999,-2.237219208741789
mp-1176547,LiVFe(P2O7)2,1.6263,-7.822585689166668,-2.565623864495465
mp-1176714,LiFePCO7,0.0,-7.488178793636364,-2.064650600043289
mp-1176692,LiFePCO7,0.154999999999999,-7.3522902872727265,-1.9287620936796521
mp-1176704,LiFePCO7,0.0,-7.4857117088636365,-2.062183515270562
mp-1176717,LiFePCO7,0.029599999999999002,-7.48832651090909,-2.064798317316016
mp-1176803,Li8Zr7Fe(PO4)12,0.0,-8.087347305263158,-3.007569422399749
mp-1176696,LiFePCO7,0.0,-7.491502151818182,-2.067973958225107
mp-1176939,Li6V3Fe(PO4)6,1.6169,-7.588535272,-2.628055724696428
mp-1176962,Li6Ti3Fe(PO4)6,0.051499999999999005,-7.66081017075,-2.789461677446428
mp-1176969,Li6Mn3Fe(PO4)6,0.884599999999999,-7.464144435,-2.497806696041256
mp-1176997,Li6FeSn3(PO4)6,2.420699999999999,-7.063704588749999,-2.483800107571427
mp-1177397,Li4Mn3Fe(BO3)4,3.0044,-7.8663654564583325,-2.462829719116378
mp-1177369,Li4Mn3Fe(BO3)4,0.0,-7.8652692745833335,-2.461733537241379
mp-1177512,Li3VFe(P2O7)2,0.005799999999999,-7.609036333043479,-2.643208330807454
mp-1177781,Li2VFe(P2O7)2,1.9038,-7.733790223636364,-2.629011987965368
mp-1177778,Li2VFe(P2O7)2,1.8187000000000002,-7.733072800454545,-2.62829456478355
mp-1177667,Li3FePCO7,3.7475,-7.214991079230769,-2.332171397472526
mp-1177780,Li2VFe(P2O7)2,1.8738000000000001,-7.733020435681819,-2.6282422000108223
mp-1177947,Li2FePCO7,1.7891,-7.414248439583333,-2.283604023234126
mp-1218109,SrPrFeCoO6,0.0,-7.563894379,-2.385984028166666
mp-1222830,Li2InFe(P2O7)2,2.7432,-7.382939593636365,-2.5656491909956722
mp-1222389,LiFeSO4F,3.4481,-6.71223532625,-2.184360321354167
mp-1223582,KFeH5(SO5)2,2.0856,-6.149314764342105,-1.710706747947368
mp-1225445,FeH8S2NO10,2.221,-6.044639461818182,-1.420732205
mp-1227885,Ca2MgFe(CO3)4,3.877399999999999,-7.92341359375,-2.403319342999999
mp-1228444,BaFeP3H2O11,2.617099999999999,-7.387527633611111,-2.506787597023809
mp-1228712,Ba2FeP4HO14,2.4765,-7.6009354090909085,-2.7538224227191552
mp-1233024,MgVFe(P2O7)2,1.6052,-7.880580851904762,-2.636878686836734
mp-1233130,MgVFe(P2O7)2,0.9628999999999991,-7.834296530000001,-2.590594364931974
mp-1233333,CaVFe(P2O7)2,1.7576,-7.969639116190477,-2.708073624217687
mp-1233464,CaVFe(P2O7)2,0.0012000000000000001,-7.863368191428572,-2.601802699455782
mp-1233455,MgVFe(P2O7)2,1.5917,-7.85780967952381,-2.614107514455783
mp-1233634,MgVFe(P2O7)2,1.697599999999999,-7.876033667619048,-2.63233150255102
mp-1233631,CaVFe(P2O7)2,1.8609,-7.968895912380953,-2.707330420408163
mp-1233750,MgVFe(P2O7)2,2.0162,-7.882168616666668,-2.63846645159864
mp-1233809,CaVFe(P2O7)2,1.9354,-7.958850640476191,-2.697285148503402
mp-1233846,CaVFe(P2O7)2,1.6683,-7.960047936190476,-2.698482444217686
mp-1233829,MgVFe(P2O7)2,2.1125,-7.863359013333334,-2.619656848265307
mp-1235226,LiVFe(P2O7)2,1.5996000000000001,-7.8035492699999995,-2.546587445328798
mp-1235295,LiVFe(P2O7)2,1.6635,-7.809468026666668,-2.552506201995465
mp-1235847,LiVFe(P2O7)2,1.5870000000000002,-7.816212039047619,-2.559250214376417
mp-1235637,Sr2LiFeO3F,2.0699,-6.40411143875,-2.5889194829166673
mp-1288751,SrLaVFeO6,0.0,-8.22590763,-2.8388947795000012
mp-1288991,FePH6NO5,3.752799999999999,-6.3156040635714294,-1.5059914822959182
mp-1278612,FePH5CO4,0.0,-6.272098125,-1.2819450881994041
mp-1639336,CaLaFeSbO6,2.254699999999999,-7.6417687445,-2.718929198