Material_ID,Formula,Band_Gap,Energy_per_Atom,Formation_Energy_per_Atom
mp-758090,Mn3FeCo2(PO4)6,0.0,-7.823655141388889,-2.227354980323619
mp-758220,Mn2V3Fe(PO4)6,0.0,-8.269162238333333,-2.566671258436645
mp-758306,Ti3FeCo2(PO4)6,0.0,-8.172815820555554,-2.682059265773808
mp-759594,V3FeCo2(PO4)6,0.0,-7.9981029025,-2.40831184327381
mp-759517,V3FeCu2(PO4)6,0.0,-7.810969870277778,-2.389746036051587
mp-772859,Na2Ti3Fe(PO4)6,0.0,-7.955248544166668,-2.786252875017106
mp-774935,Ti3Mn2Fe(PO4)6,0.625999999999999,-8.432166616666667,-2.828710141214422
mp-774892,V3Cr2Fe(PO4)6,0.0,-8.254931766388887,-2.525161221051586
mp-776012,Ti3FeCu2(PO4)6,1.440999999999999,-7.983688898611111,-2.661499568829365
mp-776144,Ti3FeSn2(PO4)6,1.3145,-8.09231967027778,-2.775110052440478
mp-776118,Mn3FeSn2(PO4)6,0.0,-7.79837666138889,-2.375623437268062
mp-776069,Ti3Cr2Fe(PO4)6,0.1135,-8.402840324722224,-2.772104283829366
mp-778326,Ti3FeNi2(PO4)6,0.6998000000000001,-8.1219335425,-2.706359212162699
mp-776760,Ti3FeSb2(PO4)6,0.0,-7.987808722777777,-2.663964139107142
mp-780107,Li7Cr3Fe(PO4)6,1.542399999999998,-7.513106950731707,-2.5854111224680603
mp-849278,FeNi3Sn2(PO4)6,0.0,-7.342751577777777,-2.201821571329364
mp-780179,Li7FeCo3(PO4)6,0.0,-7.052434579268293,-2.309101976614402
mp-829746,Li7Mn3Fe(PO4)6,0.018899999999999,-7.396451224878049,-2.504684580365453
mp-850580,V3FeSn2(PO4)6,0.0,-7.9116012397222235,-2.4953571174404763
mp-1103811,KV2Fe(AgO4)2,1.9738000000000002,-7.0525045803571444,-1.835449832541666
mp-1181484,FeH24C6(IO3)2,4.1759,-5.163316884871794,-0.597629706538461
mp-1103452,RbV2Fe(AgO4)2,2.029499999999999,-7.043216667499999,-1.8369358947023802
mp-39888,NdTi3Fe(CuO4)3,0.061700000000000005,-7.958974005499999,-2.5290841673749993
mp-505108,FeSnH12(OF)6,2.0402,-5.372047561057693,-1.741567922211538
mp-572159,KFeC6(NO)3,4.4460999999999995,-7.817564314285714,-0.32955716158928505
mp-542912,FeH12Pt(ClO)6,2.3613,-4.925510843653845,-1.230813236538461
mp-637295,ZnFeC5N6O,0.34529999999999905,-7.227829491904761,0.69007906220238
mp-698654,NaMgFe(SO4)3,0.0,-6.738749061944445,-2.114703352715517
mp-704950,SrFeSn(PO4)3,0.0,-7.644174264444445,-2.6556201649404763
mp-1105952,NaFeSO4F,4.1937,-6.6178699396875,-2.160895195797414
mp-1194644,KFeSO4F,3.925,-6.6285959345312495,-2.197915072625001
mp-1197871,Na2FeNi2(PO4)3,0.0,-7.22418994175,-2.307405503584358
mp-1202257,FeB2P2(HO4)3,2.3365,-7.2205417655,-2.1095026065684532
mp-1201957,Na3FeH10C6O17,2.6301,-6.565822687364865,-1.540574634030755
mp-1202896,FeMoHSeO7,1.663599999999999,-7.130066385227272,-1.598932178735795
mp-1210021,NaFeAsO4F,1.5887,-6.576666974375,-2.053221859859913
mp-1212910,FeBi6P2(O7F)2,2.102499999999999,-6.699631665199999,-2.070018347571428
mp-696483,FeP3H5NO10,1.6048,-6.9291597097499995,-1.953651621008929
mp-696335,K2FeH2OF5,2.7881,-5.381845499772727,-2.469089462227273
mp-744767,MnFeH14O7F5,0.0,-5.307182991428571,-1.4011345787653942
mp-866783,FeH6C2(NO2)2,2.7606,-6.596231284,-1.0117812615
mp-1213675,FeBP(HO3)2,4.2042,-7.365215605151515,-2.179489658452381
mp-1200024,FeBP(HO3)2,4.0812,-7.356911777424242,-2.171185830725107
mp-706328,Ba3DyUFeO9,1.477,-8.029766297,-3.05187425611111
mp-694975,Ba3HoUFeO9,1.4128999999999992,-7.997029806666665,-3.020517503333332
mp-1520461,SrEuZrFeO6,0.0,-8.838086255,-2.969483467500001
mp-1522366,EuZrFeBiO6,0.0,-7.5161954820000005,-1.427832072500001
mp-1099696,SrCa7Mn7FeO24,0.0,-7.57022867175,-2.3930581811379312
mp-1076792,La7SmMn7FeO24,0.0,-8.64699585875,-2.881350152637932
mp-1076139,Ca7MgFeCo7O24,0.0,-6.6886086655,-1.8679918768750001
mp-1076214,Ca7MgMn7FeO24,0.0,-7.49684388875,-2.321222350012931
mp-1076861,SrCa7FeCo7O24,0.0,-6.779711593749999,-1.9575458532499992
mp-1218694,Sr3La2FeCo4O15,0.0,-7.2783189224000004,-2.2314228566
mp-1218816,Sr2La3FeCo4O15,0.0,-7.561950646,-2.3853114196
mp-1235493,LiLuZnFeO4,0.0,-6.8331589,-2.339131505
mp-1280895,SrLaFeCoO6,0.361199999999999,-7.606954664,-2.4149907485
mp-2217706,Ba2MgFeMoO6,1.298999999999999,-7.110814702727273,-2.158827680454546
mp-2217649,Sr2MgTiFeO6,2.507699999999999,-7.39379922,-2.75119872439394
mp-2223113,Ba2MgFeWO6,1.881899999999999,-7.299439948181819,-2.155409278636364
mp-2217890,Ba2MgFeReO6,0.8922999999999991,-7.356260007272727,-2.258594430681818
mp-2241076,Sr2MgFeOsO6,0.041999999999999,-7.028614490909091,-2.083116230454545
mp-1044279,TiZnFe(PO4)3,2.381199999999999,-7.8086733130555555,-2.6282727867923272
mp-1044282,MgTiFe(PO4)3,2.379099999999999,-8.008177591944444,-2.8071811542923273
mp-1196925,FeH12N3(OF2)3,3.5115,-5.2983408438,-1.2761868848
mp-1173576,NaMgFe(SO4)3,1.87,-6.7388714966666665,-2.114825787437739
mp-1221032,NaNbFe(PO4)3,2.432,-7.978526920555556,-2.67102693918377
mp-1221187,Na4MgFe(PO4)3,2.245999999999999,-6.950477681190476,-2.612890682354562
mp-1221201,Na4FeNi(PO4)3,2.1249000000000002,-6.949593075476191,-2.414402902116467
mp-39160,CaTiFe(PO4)3,0.0,-8.117945539444444,-2.896108553736772
mp-684826,CdFeSn(PO4)3,0.0,-7.329895572222221,-2.382031356051586
mp-695054,TiCdFe(PO4)3,2.2598000000000003,-7.791107050277778,-2.6273583806812173
mp-743600,ZrFeP3PbO12,2.3786,-8.0824691325,-2.729562379940475
mp-695093,SrTiFe(PO4)3,2.2352,-8.103390174722222,-2.8989516217923272
mp-699376,TiMnFe(PO4)3,2.3036,-8.3139386875,-2.694523067788497
mp-743601,CaFeSn(PO4)3,2.4914,-7.657186790000002,-2.6512342577182553
mp-744814,RbFeP2(HO4)2,2.755,-7.025764682857143,-2.2646558792346942
mp-1203197,FeH7C3NO6,3.893399999999999,-6.54798451111111,-1.106416370347221
mp-647350,Rb5HfFe(MoO4)6,3.2283,-7.813950626351352,-2.21517102141892
mp-1177897,Li2MnFe(BO3)2,2.7636000000000003,-7.793755239166667,-2.419052588577586
mp-1193798,La3FeW(SO2)3,0.0,-8.24702285,-2.65137874375
mp-1213524,ErFeC6N6O5,0.05569999999999901,-7.169086040263157,0.36666156342105105
mp-1211025,NaFeBP2O11,0.0,-6.918983131979167,-1.8096298904061472
mp-1182219,Li4FeC6ClO21,0.431899999999999,-6.225298063030303,-0.8545882631313131
mp-1198664,Cs3CaFe(P2O7)2,2.4361,-7.263267163586956,-2.735749686523345
mp-1195793,BaFePHO5,2.984999999999999,-7.377665533333332,-2.495505406765872
mp-3217255,FeH7C3NO7,1.154,-7.100733687499999,-0.8185777734210521
mp-622613,Rb2FeC5N6O,2.8058,-7.438563817499999,-0.001760864666667
mp-1211889,K2ZrFe(PO4)3,2.6176,-7.817780220263158,-2.8229163296541353
mp-17436,TlFeC3NO4,2.652999999999999,-7.181839990499999,-0.5160788335833341
mp-532656,K2FeSn(PO4)3,2.7055,-7.274010704868422,-2.5179956971541353
mp-532655,Rb2TiFe(PO4)3,2.419,-7.520835109868421,-2.576175425250626
mp-694868,Rb2ZrFe(PO4)3,2.431499999999999,-7.607517240789473,-2.628530787048871
mp-699888,Na2TiFe(PO4)3,2.5111,-7.660454933947368,-2.677775596053711
mp-1046445,SrMgFe(PO4)2,3.917899999999999,-7.668699690384614,-2.883503197637361
mp-1104343,FeCuAs2PbO10,0.0,-6.341590722666667,-1.334808718333334
mp-1046443,SrZnFe(PO4)2,3.3951000000000002,-7.42060211,-2.663923033021978
mp-1046496,SrCaFe(PO4)2,3.991399999999999,-7.788381623076922,-2.97432898686813
mp-1173592,NaMnFe(PO4)2,1.5082,-7.813802413076922,-2.476233769122773
mp-1173582,NaZnFe(PO4)2,2.1881,-7.131830875641024,-2.402129284153719
mp-1173642,NaMnFe(PO4)2,0.10560000000000001,-7.391802360128206,-2.054233716174056
mp-1177403,Li4FeP6(H4O11)2,4.0633,-6.704098467560975,-2.201292920029035
mp-1176697,LiFePCO7,0.025900000000000003,-7.502878011818182,-2.079349818225107
mp-1177405,Li4FeP6(HO2)12,4.1488,-6.512749864680853,-2.085268689918947
mp-1181479,FeAs2Pb4(ClO2)4,0.0,-5.5918146226315795,-1.400304662894736
mp-1181651,FeC4S2N3O5,0.19210000000000002,-6.7818932756666666,0.11250942933333201
mp-1191501,FeH10S2(NO2)4,4.443,-6.024091011199999,-1.0786828611
mp-1193145,FeH12C4(S2O3)2,1.8802,-5.7110636122222225,-0.808549362407407
mp-1193023,FeC4S2N3O5,0.0,-6.784510292666667,0.10989241233333201
mp-1193185,BaFeBP2O9,1.7888000000000002,-7.923404362142857,-2.749762646675169
mp-1212733,FeH12C2(N5O3)2,1.197,-6.524013607096775,-0.69369448
mp-1212774,FePH3CO7,2.6603,-7.024849471153846,-1.7990505035302191
mp-1214156,Ca2FeP2(H2O5)2,4.408200000000001,-6.991500665789473,-2.445582569699247
mp-1215919,ZnFeAs4(Pb2O9)2,0.0,-6.3135873675,-1.587725177499999
mp-1221864,MnV4Fe(Pb2O9)2,0.3325,-7.6262923,-1.9876656159975372
mp-1225164,FeCuBi2(AsO6)2,0.0,-6.380506387777777,-1.432446741944444
mp-1225639,FeP2H6NO8,2.0996,-6.560901892777777,-1.694572299543649
mp-1225216,FeCoBi2(AsO6)2,0.0,-6.611067458333334,-1.494440587500001
mp-1227168,CaZnFe(AsO5)2,0.0,-6.384165997333334,-1.6804846763333332
mp-1227538,CaZrNbFeO7,2.227299999999999,-8.8587092075,-3.062313407954545
mp-1227854,Ca3Mg2Fe(CO3)6,4.030200000000001,-7.8644108033333335,-2.458309072500001
mp-1238261,FeC4S2N3O5,0.3382,-6.785460370333333,0.108942334666666
mp-1238696,FeH10S2(NO2)4,4.4719,-6.0213768577,-1.077382892349999
mp-1312241,Ca2MgFe(CO3)4,4.0794,-7.9237339513750005,-2.403639700625
mp-1369438,SrMgFe(PO4)2,0.0,-4.372086123076923,0.41311036967032905
mp-1379859,SrCaFe(PO4)2,0.014900000000000002,-4.565624690384616,0.24842794582417502
mp-1405864,VFeP2(O4F)2,0.0,-5.233888475714286,-0.10558368137755
mp-1419857,FeCuAs2PbO10,0.0,-5.138399858666667,-0.131617854333333
mp-1517321,BaSrNdFeO6,0.1469,-7.251391207999999,-2.597657437749999
mp-1577282,FeH10S2(NO2)4,4.6322,-6.021776754,-1.0763686039
mp-1575580,K3FePCO7,3.658399999999999,-6.988974438846153,-2.285590097991757
mp-1638898,Li2FePHO5,3.7864,-6.846431694,-2.262600500755952
mp-1665188,Li2CrFe(PO4)2,2.5057,-7.678257857142857,-2.510004321139456
mp-2222878,Sr2MgFeMoO6,1.0972,-7.139134178181819,-2.228337492272727
mp-25407,LiFePO4F,2.2424,-7.23714433625,-2.549630086622024
mp-558641,FeH44C12(N5O8)2,2.4253,-5.787983570120482,-0.593387377891566
mp-644324,K2FeH4(SO5)2,1.9558,-6.151113447105263,-1.8316526262894741
mp-651406,MnInFe(CO)9,2.145299999999999,-7.7334917192261905,-0.686784637183224
mp-697221,K2FeH4(SO5)2,1.7561,-6.153232238684211,-1.833771417868421
mp-706242,Sr20FeCo9(MoO6)10,0.219899999999999,-7.597617419999999,-2.479082471099999
mp-731953,K2FeH4(SO5)2,0.9640000000000001,-4.8113748568421055,-0.49191403602631606
mp-743819,Ca10Ti8NbFeO30,1.9961000000000002,-8.433801000099999,-3.4291991734333322
mp-744651,Li9FeCo12(PO4)12,0.028,-6.600254771707317,-1.554655525435539
mp-753646,VFeP2(HO5)2,1.123,-7.44834976125,-2.157423682611607
mp-753770,Li2FePCO7,2.3388,-7.4258078925,-2.295163476150793
mp-754968,Li3FePCO7,4.2053,-7.2192543475,-2.336434665741758
mp-754987,Li3FePCO7,4.2201,-7.22755307826923,-2.344733396510989
mp-755800,Li2MnFe(BO3)2,3.2087,-7.792506312916667,-2.417803662327586
mp-756507,LiFePHO5,0.0,-7.120651474444445,-2.239608244914022
mp-755726,Li2FePCO7,2.2748,-7.404005684166666,-2.273361267817459
mp-754533,LiFeP2HO7,4.0823,-7.268904581666667,-2.332172531572419
mp-755319,Li2MnFe(BO3)2,3.2135,-7.79289514125,-2.418192490660919
mp-756776,Li2FePHO5,3.9833,-6.8333606935,-2.249529500255953