Material_ID,Formula,Band_Gap,Energy_per_Atom,Formation_Energy_per_Atom
mp-720655,Na4Al2Si6ClO24,0.061399999999999004,-6.234427824054054,-1.7476833987977631
mp-1194879,CaZrSi6H4O17,4.8014,-7.7919589079310345,-2.936744717241379
mp-1201520,Na5Zr2Si6ClO20,0.0,-7.413406540294118,-2.79094565520284
mp-1229309,Ba2Na2Zr2Si6O23,0.0,-7.559371120928571,-2.703033864007388
mp-728532,Si6C8N2Cl4O3,0.6958000000000001,-6.469939411086957,-0.15272996478261
mp-863005,Ca2Al2Si6SnO22,0.0,-7.3066398734848494,-2.551519462424242
mp-1220974,NaSm9Si6(SO12)2,3.0002,-8.376728872619047,-3.534141076699507
mp-1228420,BaLa8Co(Si3O13)2,2.6382000000000003,-8.562530906904762,-3.56873703047619
mp-1221010,NaPr9Si6(SO12)2,3.145599999999999,-8.362530645714287,-3.503467423366175
mp-2712832,Na7Nb3Zn(SiO4)6,1.7911000000000001,-7.513135626666667,-2.82389961495094
mp-2712873,Na7MgNb3(SiO4)6,1.8983999999999992,-7.597553351869919,-2.8992752327151683
mp-2712875,Na7MgTa3(SiO4)6,2.8076,-7.820043217723578,-2.992573208129801
mp-2712891,Na7CaTa3(SiO4)6,2.7784999999999993,-7.843163800813008,-3.006544282316793
mp-2712904,Na7Ta3Zn(SiO4)6,2.3779999999999992,-7.733300833902439,-2.914872931747688
mp-2712957,Na7CaNb3(SiO4)6,1.9058000000000002,-7.620259141707317,-2.912831513650126
mp-1228104,Ca9Nb2Ga10(SiO7)6,0.044999999999999006,-7.404741255652174,-2.927926188768116
mp-39823,Na8Al6Si6CO27,3.365999999999999,-7.364442126041666,-3.018968334031969
mp-1227522,Ca6AlCr3(SiO4)6,3.4967,-8.15462541325,-3.253593167750001
mp-40374,Na6TiMn(SiO3)6,2.804599999999999,-7.4595119528125,-2.8744170074856332
mp-695056,Na6CaZr(SiO3)6,4.314500000000001,-7.404973378281251,-3.023134895414872
mp-558268,Ca4Si6Pb6Cl2O21,3.386,-7.173966141410256,-2.803339358205128
mp-1256333,Al5Cu3Si6(O7F2)3,0.195999999999999,-7.228052973902439,-2.862987054512195
mp-1210148,NaBe3Al2Si6O19,0.7872,-7.819166257096774,-3.089673408431591
mp-1214221,Be3Al2Si6HO18,4.806900000000001,-7.873208934000001,-3.082550168541667
mp-41734,Na8Al6Si6SO28,4.035900000000001,-7.270219729591837,-3.019507004806913
mp-2902906,Na8Al6Si6SO28,5.2928,-7.2702197295918385,-3.016334074561928
mp-1196398,Si6Sb2H36(C4O)3,3.3746,-5.299036604237288,-0.407108275762711
mp-1227877,Ca4Mn5Al(Si3O14)2,0.0,-7.925425605909091,-2.728314966583072
mp-557596,Na2TiFe5(Si3O10)2,2.3118,-8.129911991029411,-2.705201170326233
mp-1214127,CaAl2Si6H10O21,5.137799999999999,-7.05997313075,-2.562285500437501
mp-1226678,Cs3KZr2(Si3O10)2,0.9832999999999991,-7.660039429218751,-2.8956071800379863
mp-1224587,K3NaSi6(SnO10)2,0.26,-7.05356824484375,-2.545252559316541
mp-1194728,Ba3NaGd3(Si3O10)2,3.3773,-8.959291886818182,-3.479348232314525
mp-1195058,Ba3NaSm3(Si3O10)2,4.63,-8.110539962121212,-3.4812814080721
mp-1214671,Ba3CaCuSi6O17,1.1382,-7.790292301428572,-3.199971707321429
mp-1019523,Ba3NaY3(Si3O10)2,4.8815,-8.281331882121213,-3.489300113072101
mp-1098017,Ba3NaEu3(Si3O10)2,0.0,-8.427781240909091,-3.292202161405434
mp-559502,Ba3NaNd3(Si3O10)2,4.6986,-8.102443653636362,-3.46867952708725
mp-1199687,Si6As2H36(C4O)3,3.678499999999999,-5.3362262070338975,-0.42595478389830405
mp-1214069,CaZrSi6H2O15,2.7453000000000003,-7.8557297166,-2.8911314508999992
mp-1194692,Na2ZrSi6(HO3)6,4.9411000000000005,-7.320743484469697,-2.6777935726593523
mp-695095,Ca19Si6S6(ClO24)2,3.9739999999999993,-7.20508141074074,-3.048443572901234
mp-1215159,Ba3NaMn4Si6O23,0.11470000000000001,-7.836089125472974,-2.6982048535298233
mp-1195142,Cs2ErSi6O14F,4.6876999999999995,-7.890217568645834,-3.3018472113254322
mp-15543,NaLiZr(Si2O5)3,5.2494,-8.181124093958333,-3.240721280196361
mp-14030,Na2LiY(Si2O5)3,4.7198,-7.899582348299999,-3.184671181143677
mp-6838,Na2LiFe(Si2O5)3,3.3949,-7.7339487932,-2.940600437643677
mp-1214101,CaAl2Si6(HO4)4,2.4811,-7.128787583620689,-2.480625461034482
mp-686572,NaPr9Si6(SO12)2,3.1203,-8.361629815714284,-3.502566593366173
mp-686543,NaSm9Si6(SO12)2,3.064899999999999,-8.376382297976189,-3.53379450205665
mp-555155,KNa2Y(Si2O5)3,4.9016,-7.87155483,-3.187745788600344
mp-733443,Ca7Si6H4CO23,4.581099999999999,-7.491690588780488,-3.023311522865854
mp-1196126,Na4Be2Si6SnO20,0.3294,-7.12187828469697,-2.625926497439917
mp-1121875,NaFe9Si6B3H2O31,1.4005,-7.981857772884615,-2.398413173007294
mp-1203355,KNaAl6Si6(HO6)4,4.4605999999999995,-7.512582554404761,-2.992816279729269
mp-2713125,Na10Ca3Si6Ge5(SO8)6,0.23600000000000002,-6.669104605,-2.343036136715296
mp-2713153,Na10Hf5Zn3Si6(SO8)6,3.409,-7.289473107692308,-2.650158010369143
mp-2713148,Na10Ca3Ti5Si6(SO8)6,1.038799999999999,-7.218122003162393,-2.682280191181108
mp-2713180,Na10Ti5Zn3Si6(SO8)6,1.2545,-7.04616279931624,-2.539007766950339
mp-2713172,Na10TaIn7Si6(SO8)6,2.5692,-6.6916189459401725,-2.339278620847775
mp-2713225,Na9Mg2Ta4Si6(PO12)3,2.912099999999999,-7.799582436861111,-2.970764734455707
mp-2713268,Na9Ta4Zn2Si6(PO12)3,2.849299999999999,-7.682065500944443,-2.865605345372372
mp-2713237,Na9Mg2Nb4Si6(PO12)3,2.0305,-7.596754448805555,-2.885644913244594
mp-2713311,Na9Nb4Zn2Si6(PO12)3,2.151399999999999,-7.463588001125001,-2.764836012397374
mp-2713303,Na9Nb4Zn2Si6(PO12)3,2.049,-7.479235868749999,-2.780483880022371
mp-2713345,Na10Mg3Si6Sn5(SO8)6,1.4715,-6.643105208290598,-2.370788914300766
mp-2713351,Na10NbIn7Si6(SO8)6,0.052699999999999005,-6.6554062592307695,-2.325702120069997
mp-2713375,Na10Ca3Zr5Si6(SO8)6,2.3756,-7.34055217965812,-2.762902123232391
mp-2713384,Na10Y7NbSi6(SO8)6,2.355,-7.490245707948719,-2.824010488061451
mp-2713455,Na10NbAl7Si6(SO8)6,2.016599999999999,-7.055999630854702,-2.637772227505895
mp-2713472,Na10Mg3Zr5Si6(SO8)6,2.6507,-7.290998319017095,-2.727776334322134
mp-2713486,Na10La7NbSi6(SO8)6,2.4335,-7.33828234542735,-2.813221366117006
mp-2713490,Na10NbGa7Si6(SO8)6,2.1814,-6.716719813675214,-2.3628816238199972
mp-2713445,Na10TaAl7Si6(SO8)6,2.832799999999999,-7.093961038632479,-2.653097449352049
mp-2713500,Na10Ca3Hf5Si6(SO8)6,3.0184,-7.4660551769658134,-2.798053300027262
mp-2713496,Na10Zn3Si6Ge5(SO8)6,0.8570000000000001,-6.506537859188035,-2.209156170518715
mp-2713540,Na9Mg2Ta4Si6(PO12)3,2.9889,-7.782355960458334,-2.9535382580529292
mp-2713607,Na9Mg2Nb4Si6(PO12)3,2.1869,-7.582113097791667,-2.8710035622307073
mp-2713718,Na9Ta4Zn2Si6(PO12)3,2.939299999999999,-7.663266975541666,-2.8468068199695953
mp-2713750,Na2Ta5In3Si6(SO8)6,1.1078000000000001,-7.803208897142858,-2.586354692491791
mp-2713748,Na2Nb5In3Si6(SO8)6,1.314,-7.595246438380953,-2.5045081267775062
mp-2713785,Na2Nb5Al3Si6(SO8)6,1.4516,-7.7900573218571445,-2.657044635110838
mp-2713818,Na2La3Ta5Si6(SO8)6,1.986899999999999,-8.117835031047619,-2.807687968039409
mp-2713846,Na2Sc3Ta5Si6(SO8)6,2.014399999999999,-8.190335356666667,-2.820339922229886
mp-2713857,Na2Y3Nb5Si6(SO8)6,1.267399999999999,-7.994479543714286,-2.743030471110837
mp-2713869,Na2La3Nb5Si6(SO8)6,1.4009,-7.915550863428572,-2.7315196934679813
mp-2713987,Na2Sc3Nb5Si6(SO8)6,1.294699999999999,-7.9830256337619065,-2.739146092372743
mp-2713943,Na2Y3Ta5Si6(SO8)6,1.9260000000000002,-8.199626516095238,-2.822061550444171
mp-2713934,Na2Ta5Ga3Si6(SO8)6,2.2121,-7.8376408766666685,-2.609261431479886
mp-2713946,Na2Ta5Al3Si6(SO8)6,2.0987,-7.998471369714286,-2.739342789920362
mp-2714013,Na2Nb5Ga3Si6(SO8)6,1.581,-7.628533157571429,-2.526269605432267
mp-2714068,Na14Zr3Zn5Si6(SO8)6,3.0736,-6.658652897682927,-2.443895523711102
mp-2714079,Na14Ca5Si6Ge3(SO8)6,1.1176,-6.56851678390244,-2.451865958406224
mp-2714093,Na14Ca5Si6Sn3(SO8)6,1.2198,-6.5674757336585365,-2.473268420357443
mp-2714111,Na14Hf3Mg5Si6(SO8)6,3.3114,-6.937532279674797,-2.648602988324923
mp-2714130,Na14Ca5Zr3Si6(SO8)6,2.8329,-6.944182469065041,-2.683946054239558
mp-2714156,Na14Mg5Si6Ge3(SO8)6,1.63,-6.505972571747968,-2.41219551850785
mp-2714158,Na14Zn5Si6Sn3(SO8)6,1.6577000000000002,-6.284649777398375,-2.23592150495094
mp-2714159,Na14Mg5Zr3Si6(SO8)6,2.9141,-6.865589900772358,-2.628227258202971
mp-2714198,Na14Ti3Zn5Si6(SO8)6,1.6435,-6.601653018414635,-2.410756935174517
mp-2714178,Na14Mg5Ti3Si6(SO8)6,1.491699999999999,-6.805612785772358,-2.592111433934679
mp-2714196,Na14Hf3Zn5Si6(SO8)6,3.2800000000000002,-6.739880200894309,-2.473556178141996
mp-2714254,Na14Ca5Ti3Si6(SO8)6,1.5438,-6.879119433577236,-2.642744309483459
mp-2714242,Na14Zn5Si6Ge3(SO8)6,1.5091,-6.291841562804878,-2.220669778162322
mp-2714270,Na14Ca5Hf3Si6(SO8)6,3.2525,-7.014333536300813,-2.702530472694842
mp-2714317,Na14Mg5Si6Sn3(SO8)6,1.661499999999999,-6.4942654282926835,-2.422931887247687
mp-2714622,Na6Nb3Ga5Si6(SO8)6,1.5325,-7.14560470427928,-2.437781545776251
mp-2714629,Na6CaSi6Ge7(SO8)6,1.124699999999999,-6.818774948783784,-2.260649092544269
mp-2714648,Na6Ti7ZnSi6(SO8)6,1.7146,-7.557084683153153,-2.699480544999223
mp-2714670,Na6Nb3In5Si6(SO8)6,1.445399999999999,-7.094677973333334,-2.405025239098323
mp-2714672,Na6Sc5Ta3Si6(SO8)6,2.353099999999999,-7.824279055855856,-2.821608155183908
mp-2714675,Na6CaZr7Si6(SO8)6,2.9533,-7.788432850450451,-2.859054164143368
mp-2714681,Na6Sc5Nb3Si6(SO8)6,1.5246,-7.708105356936937,-2.7770137469136382
mp-2714688,Na6ZnSi6Sn7(SO8)6,1.3114,-6.734530499414415,-2.244513403580304
mp-2714695,Na6MgZr7Si6(SO8)6,3.0108,-7.766029736486487,-2.8417203726794042
mp-2714749,Na6Y5Ta3Si6(SO8)6,2.2446,-7.836133541666667,-2.821528695386612
mp-2714727,Na6Hf7ZnSi6(SO8)6,3.6929,-7.915471760450451,-2.862842229143368
mp-2714789,Na6CaTi7Si6(SO8)6,1.702399999999999,-7.622436738198198,-2.754753461260486
mp-2714718,Na6MgTi7Si6(SO8)6,1.6643999999999992,-7.605866566666667,-2.7432526122289542
mp-2714792,Na6Ta3Al5Si6(SO8)6,2.0519,-7.521418944594595,-2.6935381300712953
mp-2714822,Na6Ta3Ga5Si6(SO8)6,2.2326,-7.26499479936937,-2.485592350217693
mp-2714851,Na6Hf7MgSi6(SO8)6,3.5897,-7.963042204909911,-2.905402857319044
mp-2714829,Na6La5Nb3Si6(SO8)6,1.4431,-7.59154991927928,-2.754813849796522
mp-2714874,Na6CaHf7Si6(SO8)6,3.5544000000000002,-7.979465840405405,-2.916757170314538
mp-2714871,Na6CaSi6Sn7(SO8)6,1.168499999999999,-6.80313011981982,-2.303033885201927
mp-2714870,Na6Y5Nb3Si6(SO8)6,1.3921000000000001,-7.72025787445946,-2.777232318828053
mp-2714893,Na6MgSi6Ge7(SO8)6,1.3737,-6.811290420495497,-2.2582338867559812
mp-2715266,Na9Ca2Ta4Si6(PO12)3,2.7958,-7.8357938845,-2.994471853261262
mp-2715273,Na9Ca2Nb4Si6(PO12)3,1.9659,-7.6341813234444444,-2.9105674590501502
mp-2715343,Na9Ca2Ta4Si6(PO12)3,2.9178,-7.8135320660416685,-2.972210034802929
mp-2715360,Na9Ca2Nb4Si6(PO12)3,2.1564,-7.614434445875001,-2.890820581480706
mp-2716295,Na6Zr7ZnSi6(SO8)6,2.9229000000000003,-7.716973360720721,-2.797673813197423
mp-2716329,Na6Ta3In5Si6(SO8)6,2.0237,-7.20781878936937,-2.44658676448571
mp-2716341,Na10Mg3Ti5Si6(SO8)6,1.2246000000000001,-7.181682608034189,-2.660268867783672
mp-2716360,Na6MgSi6Sn7(SO8)6,1.357,-6.786059283558559,-2.291032371440665
mp-2716356,Na10La7TaSi6(SO8)6,3.2291,-7.372641802820514,-2.824944637578545
mp-2716450,Na10TaGa7Si6(SO8)6,3.069,-6.756190598034188,-2.379716222247348
mp-2716405,Na10Sc7TaSi6(SO8)6,2.9898000000000002,-7.494893633547009,-2.821872955484528
mp-2716406,Na10Y7TaSi6(SO8)6,3.261399999999999,-7.529458397991454,-2.840586992172561
mp-2716474,Na6ZnSi6Ge7(SO8)6,1.3557000000000001,-6.760066299594595,-2.212019582138864
mp-2716367,Na10Zn3Si6Sn5(SO8)6,1.384799999999999,-6.503424706111112,-2.245367120005895
mp-2716434,Na10Sc7NbSi6(SO8)6,2.2734,-7.459208638034188,-2.80882414590333
mp-2716504,Na10Hf5Mg3Si6(SO8)6,3.3443,-7.42022290491453,-2.76664909970675
mp-2716523,Na10Zr5Zn3Si6(SO8)6,2.7121,-7.157503181239317,-2.608539904428972
mp-2716554,Na10Ca3Si6Sn5(SO8)6,0.9053999999999991,-6.682635237948718,-2.395890872228117
mp-2716567,Na10Mg3Si6Ge5(SO8)6,0.7746999999999991,-6.641046217307692,-2.329405820753758
mp-2716557,Na6Nb3Al5Si6(SO8)6,1.3889,-7.405417937117117,-2.6491164132424663
mp-693358,Ca6Ti5AlSi6O29F,2.4854000000000003,-8.344217453229167,-3.485607767951389
mp-693746,Na17Zr7Sc5Si6(PO6)12,4.1506,-7.8659821150420175,-3.09206374516103
mp-695616,Ca6TiAl5Si6(O5F)5,2.863799999999999,-7.7935573468750015,-3.533616396319445
mp-743624,Ca5DyTi5Fe(SiO5)6,2.6769,-8.475111483541665,-3.400432430381943
mp-1203019,Ca6MnSi6Pb2(SO16)2,0.0,-7.116925475510204,-2.468266532916959
mp-1197226,KNaAl6Si6(HO6)4,4.737299999999999,-7.514568576904762,-2.994802302229269
mp-1196506,Zr5Si6H36C12(Br10O3)2,2.181899999999999,-5.384472372764706,-1.023447834352941
mp-1198749,Ca2Al2Si6Sn(H3O11)2,4.275,-7.3406983483333335,-2.794801625320512
mp-1215091,Ca2Al2Si6Sn(H3O11)2,3.293799999999999,-6.962233542948717,-2.416336819935896
mp-1228617,Ba3Sr2Ca4Mg3(SiO4)6,4.8935,-7.5037549692857155,-3.376170139166666
mp-1220864,Na8Al3Ga3Si6(ClO12)2,4.3862,-6.9252964893478275,-2.880626328337707
mp-1221241,NaMg6Al3Si6(BO10)3,0.0,-7.403082347346939,-2.844099041201618
mp-534778,NaCa2ScZn2(SiO3)6,4.494099999999999,-7.6550549795,-3.127718875045978
mp-706336,Na4Be2Si6Sn(HO5)4,4.0735,-7.050840233783783,-2.673892267986952
mp-2712657,Na6Mg2Nb4Si6(SO12)3,1.8846,-7.54370244868421,-2.722473186855718
mp-2712645,Na6Ca2Ta4Si6(SO12)3,2.5301,-7.782140753947369,-2.823845707194898
mp-2712594,Na6Ta4Zn2Si6(SO12)3,2.4109,-7.628585446842106,-2.696460795528231
mp-2712758,Na6Ca2Nb4Si6(SO12)3,1.8487,-7.577254441491228,-2.742862728259226
mp-2712731,Na6Mg2Ta4Si6(SO12)3,2.455,-7.751604566842105,-2.806471971493144
mp-2712752,Na6Nb4Zn2Si6(SO12)3,1.811299999999999,-7.418809564210527,-2.61058824641712
mp-728227,NaMg3Al6Si6B3O31,0.09729999999999901,-7.7287715258,-3.035102316777586
mp-1207887,Y3Al6Si6B3H3O31,0.0,-8.064440087500001,-3.099765021274039
mp-1210493,NaFe9Si6B3H3O31,0.02,-7.905026913396226,-2.362870580709987
mp-818418,NaAl6Fe3Si6B3O31,0.0,-8.055970157199999,-2.951927876477585
mp-1220843,Na8Al6Si6BrClO24,4.6803,-7.156833043913044,-3.069970506870315
mp-1220856,Na8Al6Si6IClO24,4.259200000000001,-7.136635561086956,-3.052228109261619
mp-1227826,Ca4Al5CrSi6(HO13)2,4.0168,-7.853716935454545,-3.208431632556818
mp-1197973,KNaAl6Si6(HO6)4,4.736600000000001,-7.5146568347619045,-2.994890560086412
mp-1201038,KNaAl6Si6(HO6)4,4.736800000000001,-7.511699467916665,-2.991933193241174
mp-13726,Na3SrLaZnSi6O17,4.7991,-7.55033530362069,-3.116521979280619
mp-1228294,Ca4Al5FeSi6(HO13)2,2.714,-7.79368949159091,-3.175291149147727
mp-1218654,SrCa3Al6Si6(HO13)2,4.9056,-7.779227175454546,-3.275320132329545
mp-1197574,Ba3NaMn4Si6O22F,0.6848000000000001,-7.810358158108108,-2.7544768221109033
mp-1203787,Ca6MnBe4Si6HO24,0.0,-7.722985023988095,-3.178903958016215
mp-721034,NaFe9Si6B3H2O31,0.849599999999999,-7.9771237536538475,-2.393679153776526
mp-2714365,Na12Nb2Zn4Si6(SO12)3,1.7861999999999991,-6.63830098936508,-2.440907069905583
mp-2714363,Na12Mg4Nb2Si6(SO12)3,1.655999999999999,-6.852025347460318,-2.631093243556376
mp-2714447,Na12Ta2Zn4Si6(SO12)3,2.5225,-6.73036285388889,-2.476917426408229
mp-2714480,Na12Mg4Ta2Si6(SO12)3,2.5664,-6.94603286952381,-2.6690492575987053
mp-2714532,Na12Ca4Nb2Si6(SO12)3,1.7527,-6.928002387698413,-2.683252514588123
mp-2714553,Na12Ca4Ta2Si6(SO12)3,2.5972,-7.022552942936509,-2.7217515618050543
mp-2714969,Na6Nb5ZnSi6(PO12)3,2.4675000000000002,-7.917922709912281,-2.887369755214114
mp-2715100,Na6CaTa5Si6(PO12)3,3.2012,-8.26061448008772,-3.062097160769668
mp-2715130,Na6MgNb5Si6(PO12)3,2.4552,-7.979337939473684,-2.942281012757973
mp-2715218,Na6CaNb5Si6(PO12)3,2.5035,-7.997527233596492,-2.9538890811790273
mp-2714982,Na6Ta5ZnSi6(PO12)3,3.2378,-8.183545321666667,-2.998113200067915
mp-2715221,Na6MgTa5Si6(PO12)3,3.198099999999999,-8.242638665263158,-3.050702571646862
mp-2715664,Na3MgNb5Si6(SO12)3,1.8665,-7.9404415266666675,-2.7690389227155183
mp-2715691,Na3CaTa5Si6(SO12)3,2.5999,-8.235220323055556,-2.893387304690827
mp-2715705,Na3MgTa5Si6(SO12)3,2.442599999999999,-8.211873248796296,-2.876987079783418
mp-2715711,Na3Ta5ZnSi6(SO12)3,2.5272,-8.149728332592593,-2.821707467376011
mp-2715703,Na3Nb5ZnSi6(SO12)3,1.829699999999999,-7.874998217037038,-2.710460916882184
mp-2715820,Na3CaNb5Si6(SO12)3,1.8034999999999992,-7.957924307592593,-2.779574854289592
mp-1199737,K6Al4Si6BH4ClO24,4.5193,-7.108376701086955,-2.865287828427535
mp-18401,NaAl6Fe3Si6B3O30F,2.5620000000000003,-8.0463116762,-3.002951568077586
mp-1221086,NaMg3V3Cr3Si6B3H3O31,1.4672,-8.039841510754718,-2.783117635143949
mp-863003,NaAl6Fe3Si6B3H3O30F,3.5914,-7.84177998509434,-2.891713858257157
mp-1221055,NaMg2Al6VSi6B3H3O31,5.0784,-7.801358973773585,-3.040559052596779
mp-1180115,Na8Si7O18,2.2576,-6.396778238787879,-2.221799737910136
mp-652025,Na8Si7O18,0.0,-6.068982829090909,-1.8940043282131662
mp-581173,Cs10Si7O9,1.415,-5.347066002788461,-1.824425581309681
mp-29176,Na8Si7O18,4.4437,-6.984326476060606,-2.809347975182863
mp-1344597,Li2VSi7O16,0.0,-2.670120720769231,2.331662128974358
mp-1369597,Li2CrSi7O16,0.0,-0.8777593242307691,4.145913579358974
mp-707534,Mg16Si7HO32,0.0,-6.9602697891071434,-2.928222198950892
mp-752731,Li2CrSi7O16,2.2089,-8.035334671538463,-3.011661767948719
mp-757841,Li2VSi7O16,1.2348,-8.019117694807692,-3.017334845064103
mp-767276,Li5Fe5Si7O24,1.8417999999999992,-7.650195011951219,-2.561828896991869
mp-767328,Li5Fe5Si7O24,2.4003,-7.661481476097562,-2.5731153611382123
mp-863356,Li5Fe5Si7O24,2.3908,-7.661082295609756,-2.5727161806504073
mp-860959,Li5Fe5Si7O24,2.598,-7.66139428292683,-2.57302816796748
mp-559608,K3NdSi7O17,4.721500000000001,-7.834920255625,-3.182962402205357
mp-557237,K5In3(SiO3)7,3.6681,-7.138360928958333,-2.8100615634375
mp-1173745,Na6Ga5Si7H15O32,1.426,-6.288828979384615,-2.128363137300397
mp-1221340,Na4Al3Si7(HO3)8,0.0,-6.969662520000001,-2.611113988598201
mp-1266342,Na11Zr8Si7P5O48,4.0624,-8.016886671645569,-3.134642928840337
mp-2712866,Na6Ti8Si7S5O48,1.5515999999999992,-7.7844730557207225,-2.819805311226702
mp-2712888,Na6Si7Sn8S5O48,1.241199999999999,-6.856362473063064,-2.311794205505981
mp-2712936,Na6Hf8Si7S5O48,3.181,-8.19245090990991,-3.004897001812286
mp-2713014,Na6Zr8Si7S5O48,2.658699999999999,-7.970493357432433,-2.9353165736591342
mp-2713022,Na6Si7Ge8S5O48,1.5122,-6.890852377882884,-2.279964542758233
mp-2715533,Na14Y8Si7S5O48,3.248199999999999,-7.321734390325203,-2.845783473396062
mp-2715647,Na14Al8Si7S5O48,3.8199,-6.875508322520325,-2.669168690469232
mp-2715766,Na14Sc8Si7S5O48,3.6807,-7.301742153414634,-2.843022689656224
mp-2715740,Na14La8Si7S5O48,3.4959,-7.157163659837399,-2.83468439120094
mp-2715669,Na14In8Si7S5O48,2.386199999999999,-6.434867963902439,-2.324762681770046
mp-2715795,Na14Ga8Si7S5O48,2.8537,-6.5083760043089445,-2.3720344022578512
mp-677528,Na11Zr8Si7P5O48,4.092,-8.013520258860758,-3.131276516055527
mp-677336,Na10Zr6Si7(PO18)2,3.9808000000000003,-7.903329493770492,-3.122375706771784
mp-686308,Na6Ga5Si7H15O32,0.9958,-6.272217383846153,-2.111751541761936
mp-723254,Na11Zr8Si7P5O48,0.0,-2.7879698081012663,2.094273934703966
mp-746884,Ca12Mn8Si7(H5O16)3,1.0723,-7.046757418333334,-2.3381999524688712
mp-1199586,KSi7H62C25O6,0.9720000000000001,-5.312914484529703,-0.263277667918317
mp-1199399,TiSi7H48(C8O)2,3.0433,-5.248319447297297,-0.297031917882883
mp-686601,Na3MgAlSi7O18,4.9969,-7.624198563333334,-3.076140813971264
mp-1202945,K2NaCa2TiSi7O20,0.328,-7.764028353030303,-3.144404161794323
mp-2712845,Na6La4Ta4Si7S5O48,2.6413,-7.893587333558559,-2.874219555857331
mp-2712849,Na6Hf4Ti4Si7S5O48,1.734999999999999,-7.988171500810811,-2.91206067451499
mp-2712859,Na6Zr4Si7Sn4S5O48,1.5304000000000002,-7.405962915270271,-2.61609038960508
mp-2712864,Na6Hf4Si7Sn4S5O48,2.2374,-7.530387618288288,-2.664326530460935
mp-2712872,Na6Hf4Si7Ge4S5O48,2.233,-7.5383427411711725,-2.639121869560035
mp-2712912,Na6Zr4Si7Ge4S5O48,1.3867,-7.41132813027027,-2.588295820821296
mp-2712911,Na6Sc4Ta4Si7S5O48,2.3399,-7.969301833918919,-2.87444962378526
mp-2712907,Na6Zr4Ti4Si7S5O48,1.345899999999999,-7.875204632387388,-2.8752823682537283
mp-2712938,Na6Nb4Al4Si7S5O48,1.5265,-7.570788058738739,-2.711206971722197
mp-2712946,Na6Si7Sn4Ge4S5O48,1.296199999999999,-6.869163146576577,-2.29143509523571
mp-2712930,Na6Ti4Si7Sn4S5O48,1.6859000000000002,-7.320286855315316,-2.565668849289764
mp-2712948,Na6Y4Ta4Si7S5O48,2.4522,-7.986683541936938,-2.882284175316792
mp-2712952,Na6Nb4Ga4Si7S5O48,1.8005,-7.369203176396397,-2.548404781677152
mp-2712966,Na6Ta4Ga4Si7S5O48,2.2295,-7.526159815990991,-2.609922367073548
mp-2713003,Na6Nb4In4Si7S5O48,1.8127,-7.334317503648649,-2.5280554483438182