Material_ID,Formula,Band_Gap,Energy_per_Atom,Formation_Energy_per_Atom
mp-2713889,Na6Zr2Ti2Si5SO24,2.6081,-7.764109408166667,-2.99029131310273
mp-2713870,Na6Sc2Ta2Si5SO24,3.1013,-7.8512037225833335,-2.989575427469396
mp-2713919,Na6Hf2Si5Ge2SO24,2.4801,-7.456840807500001,-2.776171500519397
mp-2713899,Na6Zr2Si5Ge2SO24,2.7475,-7.358634776666666,-2.748439889686063
mp-2713907,Na6Ti2Si5Sn2SO24,2.655599999999999,-7.271649766,-2.724738109686064
mp-2713937,Na6Ti2Si5Ge2SO24,2.717,-7.284974755333334,-2.707390299019397
mp-2713974,Na6Hf2Ti2Si5SO24,2.5584,-7.872653465,-3.028360949936063
mp-2713969,Na6Hf2Si5Sn2SO24,2.7721,-7.454332136916666,-2.8043356299360633
mp-2713938,Na6Nb2Ga2Si5SO24,2.2638,-7.297805943916668,-2.689677428061064
mp-2713982,Na6Y2Nb2Si5SO24,2.2492,-7.7067982210000014,-2.924619931269397
mp-2713952,Na6Nb2Al2Si5SO24,2.296899999999999,-7.486363129500001,-2.842360623269397
mp-2714010,Na6Sc2Nb2Si5SO24,2.232299999999999,-7.70304687125,-2.929699701269397
mp-2714355,Na7Sc2Nb2Si5PO24,2.3499,-7.709194295284553,-2.98839620904792
mp-2714381,Na7Nb2In2Si5PO24,2.4335,-7.279759843821139,-2.733268848397513
mp-2714371,Na7Nb2Ga2Si5PO24,2.5867,-7.321599742357724,-2.761990586974749
mp-2714345,Na7Ti2Si5Sn2PO24,2.8225,-7.304385696504066,-2.8045003065275953
mp-2714347,Na7Zr2Si5Ge2PO24,3.6102,-7.396479499186992,-2.834854371974749
mp-2714397,Na7Hf2Si5Sn2PO24,3.4086,-7.493170482195122,-2.892714506202391
mp-2714389,Na7Zr2Si5Sn2PO24,3.5476,-7.386359347886179,-2.854658903600765
mp-2714396,Na7La2Ta2Si5PO24,2.8008,-7.722098986504065,-2.983293070869058
mp-2714452,Na7Ti2Si5Ge2PO24,2.748,-7.318281995121952,-2.788471922218652
mp-2714439,Na7Sc2Ta2Si5PO24,3.1704,-7.854670173739837,-3.047744160543854
mp-2714444,Na7Nb2Al2Si5PO24,2.5489,-7.505489842439025,-2.910881672056049
mp-2714475,Na7Si5Sn2Ge2PO24,3.0814,-6.914656146422765,-2.574403154576375
mp-2714479,Na7Hf2Ti2Si5PO24,2.7822,-7.891454241463415,-3.101441184413774
mp-2714497,Na7Y2Nb2Si5PO24,2.2647,-7.702874777886179,-2.973460965064179
mp-2714500,Na7Ta2In2Si5PO24,3.147199999999999,-7.419018619837399,-2.7863996974544243
mp-2714508,Na7Hf2Zr2Si5PO24,4.382,-7.978650281626016,-3.156822170267431
mp-2714515,Na7Hf2Si5Ge2PO24,3.4854,-7.5001651488617895,-2.869784489942229
mp-2714543,Na7Y2Ta2Si5PO24,3.092,-7.8473685230081305,-3.031826783226781
mp-2714571,Na7Ta2Ga2Si5PO24,3.3745000000000003,-7.468897305934959,-2.823160223592634
mp-2714577,Na3Ta2Nb2Si5PO24,2.956,-8.468663191621623,-3.08339953495804
mp-2714583,Na7Ta2Al2Si5PO24,3.3879,-7.6552326265853665,-2.974496529243041
mp-2714602,Na7La2Nb2Si5PO24,2.0097,-7.584427713089432,-2.9317497244137742
mp-2714616,Na7Zr2Ti2Si5PO24,2.9164000000000003,-7.786358800569106,-3.065101275226781
mp-2714924,Na10Zn4Si5Sn4S7O48,1.2147000000000001,-6.385368713760684,-2.179064803392647
mp-2714927,Na10Mg4Si5Ge4S7O48,0.7039999999999991,-6.562535581538462,-2.305760778606323
mp-2714964,Na10Ca4Ti4Si5S7O48,1.2164,-7.04382152871795,-2.599990621854186
mp-2714926,Na4Nb3GaSi5SO24,2.2537000000000003,-7.766654405438597,-2.800472613478524
mp-2714930,Na10Mg4Zr4Si5S7O48,2.8947000000000003,-7.094073194572649,-2.636033121127689
mp-2714939,Na4Nb2Si5Sn2SO24,2.621699999999999,-7.533532651491229,-2.701831316175893
mp-2714989,Na4Zr2Ta2Si5SO24,3.4443,-8.220044284035088,-3.056566565684665
mp-2715000,Na10Sc4Ga4Si5S7O48,3.3498,-6.938801419358975,-2.5226898339909383
mp-2714997,Na10Ca4Zr4Si5S7O48,2.6572,-7.155994016709402,-2.678716514290082
mp-2715001,Na4Nb2Si5Ge2SO24,2.513,-7.538543942280702,-2.6745554490706303
mp-2715003,Na10Sc4In4Si5S7O48,2.943699999999999,-6.907431635512821,-2.5051109362558943
mp-2715005,Na4LaTa3Si5SO24,2.6946000000000003,-8.161974461929825,-3.006193233377648
mp-2715011,Na10La4In4Si5S7O48,2.6951,-6.833407929230769,-2.502700665871279
mp-2715014,Na10Ca4Si5Ge4S7O48,0.0,-6.58580559991453,-2.309793368008032
mp-2715024,Na10Hf4Mg4Si5S7O48,3.568699999999999,-7.200627961025641,-2.670306431170425
mp-2715042,Na4Ta3GaSi5SO24,3.0084,-8.004129636578948,-2.8985565944083502
mp-2715045,Na10Zr4Zn4Si5S7O48,2.9584,-6.912945756880342,-2.473917293948203
mp-2715075,Na10Y4Al4Si5S7O48,3.8805,-7.134539775854702,-2.672576795486664
mp-2715039,Na4ScTa3Si5SO24,3.005299999999999,-8.219701706403509,-3.027171477851331
mp-2715053,Na4Ta2Si5Ge2SO24,2.949,-7.701422086666667,-2.744506093316244
mp-2715077,Na4Zr2Nb2Si5SO24,2.5691,-8.06238266263158,-2.991832444421507
mp-2715103,Na4Ta3InSi5SO24,0.5346000000000001,-7.980025910701754,-2.881529770614489
mp-2715057,Na4Ta3AlSi5SO24,3.0966,-8.106414002894738,-2.981959913158349
mp-2715110,Na10Al4Ga4Si5S7O48,3.339899999999999,-6.707052085,-2.4236016932217073
mp-2715122,Na4Nb3AlSi5SO24,2.2748,-7.865558989210527,-2.880496149684664
mp-2715034,Na10Y4Sc4Si5S7O48,3.6014,-7.37962774491453,-2.785003570956749
mp-2715087,Na10Zn4Si5Ge4S7O48,0.47999999999999904,-6.373203128803419,-2.1354399363841
mp-2715085,Na10Ca4Hf4Si5S7O48,3.3506,-7.25396631457265,-2.704407355743075
mp-2715096,Na10La4Al4Si5S7O48,3.7935,-7.038366091068376,-2.657074105315724
mp-2715086,Na4ScNb3Si5SO24,2.0781,-7.980074814035088,-2.926935835693436
mp-2715112,Na4YTa3Si5SO24,2.891599999999999,-8.21946944394737,-3.022291257632033
mp-2715126,Na4LaNb3Si5SO24,1.9459,-7.92608800008772,-2.909698021746068
mp-2715049,Na10Hf4Zn4Si5S7O48,3.568699999999999,-7.021718716965812,-2.510408797623416
mp-2715076,Na10Ti4Zn4Si5S7O48,1.3997,-6.821633216068377,-2.4160513486917923
mp-2715139,Na4Ta2Si5Sn2SO24,3.0341,-7.690371886666667,-2.765743051210981
mp-2715136,Na10Ca4Si5Sn4S7O48,0.5012999999999991,-6.621034504529915,-2.3764815546746982
mp-2715113,Na10Mg4Si5Sn4S7O48,0.9577,-6.5613466126068385,-2.33603109172598
mp-2715129,Na10In4Ga4Si5S7O48,2.7511,-6.475494273162394,-2.242628603777263
mp-2715119,Na4Hf2Nb2Si5SO24,2.4899,-8.17544944140351,-3.030715623193437
mp-2715150,Na10Sc4Al4Si5S7O48,3.7006,-7.12799606974359,-2.675090648093502
mp-2715093,Na4Ti2Nb2Si5SO24,2.4744,-7.9701753315789485,-2.933951882491682
mp-2715161,Na4Ta2Ti2Si5SO24,2.6292,-8.12760125754386,-2.998450308316243
mp-2715165,Na10Y4In4Si5S7O48,2.6696,-6.925661040555556,-2.514282782580681
mp-2715152,Na10Mg4Ti4Si5S7O48,1.310099999999999,-7.003996097393163,-2.579402619503758
mp-2715167,Na10La4Y4Si5S7O48,3.835499999999999,-7.318179482307693,-2.795168744247348
mp-2715176,Na4Nb3InSi5SO24,1.9856,-7.744001932017544,-2.784897042140805
mp-2715184,Na10La4Sc4Si5S7O48,3.6633,-7.289943763846154,-2.775990584503758
mp-2715183,Na4YNb3Si5SO24,1.9944000000000002,-7.983819015350878,-2.926032079246068
mp-2715178,Na4Hf2Ta2Si5SO24,3.4169,-8.334194736578949,-3.096533418228525
mp-2715196,Na10Al4In4Si5S7O48,2.8257,-6.666818963205129,-2.397159457537946
mp-2715204,Na10Y4Ga4Si5S7O48,2.9609,-6.948862001367522,-2.523692857281536
mp-2715206,Na10La4Ga4Si5S7O48,2.8849,-6.857822005641027,-2.513323856170425
mp-2715534,Na8MgZr3Si5SO24,3.3272,-7.400923165555556,-2.9241766900444723
mp-2715531,Na8Y2Zr2Si5SO24,3.9137,-7.532581186349207,-2.988215369052408
mp-2715529,Na8Al2Si5Sn2SO24,3.1276,-6.84599311936508,-2.649324656592091
mp-2715572,Na8La2Hf2Si5SO24,3.5991,-7.538666437222223,-3.002090905401615
mp-2715561,Na8Ti2In2Si5SO24,2.7047,-7.025894567301588,-2.691153815242885
mp-2715581,Na8La2Zr2Si5SO24,3.628,-7.4390148397619065,-2.969557803179393
mp-2715578,Na8Sc2Si5Sn2SO24,2.9492000000000003,-7.050331024682539,-2.730477167861932
mp-2715601,Na8Ga2Si5Ge2SO24,2.9838999999999993,-6.684606970555555,-2.492892022425425
mp-2715611,Na8CaSi5Sn3SO24,1.614599999999999,-6.716304629761905,-2.554778546155583
mp-2715623,Na8MgTi3Si5SO24,2.1194,-7.285853770396826,-2.855693624409551
mp-2715619,Na8Al2Si5Ge2SO24,3.1964,-6.867575704761905,-2.641695051512726
mp-2715618,Na8Mg2Ta2Si5SO24,2.5772999999999993,-7.271695742380952,-2.8015868094809813
mp-2715633,Na8Sc3TaSi5SO24,3.2907,-7.52899824952381,-2.9667574179968543
mp-2715634,Na8Y3TaSi5SO24,3.183899999999999,-7.530868958095239,-2.956012241211139
mp-2715639,Na8Hf3ZnSi5SO24,3.5263,-7.47745600420635,-2.908858605004789
mp-2715637,Na8La3NbSi5SO24,2.5338000000000003,-7.320289853809524,-2.899834939012726
mp-2715651,Na8Hf2Sc2Si5SO24,4.083299999999999,-7.628488933174603,-3.025415210877805
mp-2715654,Na8Zr2Ga2Si5SO24,3.6518,-7.137155770634921,-2.758551642742884
mp-2715652,Na8TaAl3Si5SO24,2.9061,-7.218322676111111,-2.8408599356555833
mp-2715656,Na8ZnSi5Ge3SO24,1.6362,-6.63049702888889,-2.44291114218733
mp-2715665,Na8Ti2Al2Si5SO24,2.7262999999999993,-7.243684482460318,-2.861972202465107
mp-2715663,Na8TaGa3Si5SO24,3.1655,-6.954579473253968,-2.628365290477012
mp-2715676,Na8Ta2Zn2Si5SO24,2.3996999999999993,-7.105641476984128,-2.653186182417488
mp-2715689,Na8Y2Si5Sn2SO24,2.7003,-7.052353377936509,-2.724088930877805
mp-2715699,Na8Sc3NbSi5SO24,2.3014,-7.454136961111111,-2.9339347606000272
mp-2715713,Na8MgSi5Ge3SO24,1.5748000000000002,-6.711495363730159,-2.515082657861933
mp-2715730,Na8NbGa3Si5SO24,2.216899999999999,-6.879202739920635,-2.595027188159551
mp-2715758,Na8Sc2Ti2Si5SO24,2.792799999999999,-7.445226186825397,-2.940328512782567
mp-2715771,Na8Zr3ZnSi5SO24,3.3378,-7.321573571269841,-2.853653914925424
mp-2715716,Na8Mg2Nb2Si5SO24,1.7772000000000001,-7.131886526746032,-2.745854855877806
mp-2715864,Na6Ta2In6Si5S7O48,1.271,-6.9458685712162165,-2.325105630951926
mp-2715873,Na14Ca4Al4Si5S7O48,3.583999999999999,-6.666751945284553,-2.576678419635899
mp-2715894,Na6Zr4Sc4Si5S7O48,2.8017000000000003,-7.692950474054054,-2.8122985960239992
mp-2715745,Na8Ca2Ta2Si5SO24,2.681599999999999,-7.318634145555556,-2.830661885750822
mp-2715914,Na6La6Nb2Si5S7O48,0.7060999999999991,-7.485171720765766,-2.735628305303278
mp-2715942,Na14Mg4Sc4Si5S7O48,3.2136,-6.82107899292683,-2.623114569229395
mp-2715726,Na8La2Si5Sn2SO24,2.191,-6.953276090079366,-2.699920423734948
mp-2715760,Na8Y2Hf2Si5SO24,3.8485,-7.631992532619048,-3.020508220084154
mp-2715719,Na8Hf2Al2Si5SO24,4.0054,-7.41650454468254,-2.93661621643336
mp-2715742,Na8Zr2Al2Si5SO24,3.9816000000000003,-7.310591355952382,-2.897821522941298
mp-2715850,Na6La4Hf4Si5S7O48,3.391299999999999,-7.736155837207208,-2.854799829447422
mp-2715862,Na6La4Ti4Si5S7O48,1.5485,-7.525495940315316,-2.755583014357332
mp-2715960,Na6Y6Ta2Si5S7O48,1.522599999999999,-7.7001878114414435,-2.775377485501477
mp-2715829,Na6Hf6Zn2Si5S7O48,3.1342,-7.6141940646846855,-2.696488910168143
mp-2715838,Na6Y4Si5Sn4S7O48,1.102499999999999,-7.147505418018019,-2.502610641609585
mp-2715893,Na14Ca4Sc4Si5S7O48,3.026499999999999,-6.892231097195122,-2.675967655692809
mp-2715844,Na6Y4Hf4Si5S7O48,3.5018000000000002,-7.82501212454955,-2.858624527870846
mp-2715889,Na14Y4Zn4Si5S7O48,3.1737,-6.664466573861789,-2.475970638457037
mp-2715901,Na6Y4Ti4Si5S7O48,1.4201000000000001,-7.6191526207207225,-2.764208105843818
mp-2715925,Na6Y4Zr4Si5S7O48,2.8142,-7.717590168648649,-2.827391134132106
mp-2716048,Na6Sc4Si5Ge4S7O48,1.4262000000000001,-7.1421642237837855,-2.473656820078053
mp-2716054,Na6Zr6Zn2Si5S7O48,2.4076,-7.44848008855856,-2.64505777728526
mp-2716064,Na6Nb2In6Si5S7O48,0.9978,-6.8697585854954974,-2.296715172330305
mp-2715937,Na6Sc6Nb2Si5S7O48,0.9951000000000001,-7.60419538436937,-2.741425320258233
mp-2715779,Na8In2Si5Ge2SO24,2.6036,-6.6368567402380965,-2.4579476149254242
mp-2715935,Na14Sc4Zn4Si5S7O48,3.1829,-6.653911869105691,-2.474031660286305
mp-2716072,Na14Ca6Zr2Si5S7O48,2.4875,-6.797637545813009,-2.632877462847281
mp-2716101,Na14Mg6Ti2Si5S7O48,0.8538999999999991,-6.649095669634147,-2.527691640530208
mp-2716111,Na6Zr4Ga4Si5S7O48,2.5392,-7.236309181801802,-2.534272064987962
mp-2715983,Na6Sc6Ta2Si5S7O48,1.5492,-7.677600818513515,-2.7671112273032783
mp-2715992,Na6Ti4In4Si5S7O48,1.1280000000000001,-7.112851833288288,-2.4606055755285032
mp-2716004,Na6Ca2Zr6Si5S7O48,2.262699999999999,-7.580531720495496,-2.7569511316546302
mp-2715972,Na6Mg4Nb4Si5S7O48,0.7597,-7.239885057207208,-2.5294166753933682
mp-2715976,Na6Nb4Zn4Si5S7O48,1.1241,-7.057507136666667,-2.367078019987962
mp-2715984,Na14Zn6Si5Ge2S7O48,0.451499999999999,-6.18996862686992,-2.175507119148094
mp-2716134,Na8TaIn3Si5SO24,2.9678999999999993,-6.891920754841271,-2.584915306290504
mp-2716135,Na8CaHf3Si5SO24,3.4873,-7.581836622380952,-2.9954807405603443
mp-2716160,Na2Sc4Ta4Si5S7O48,1.8518,-8.036423583238095,-2.763876961660838
mp-2716177,Na8NbIn3Si5SO24,2.286699999999999,-6.819393241507937,-2.554426423973043
mp-2715869,Na14Mg4Al4Si5S7O48,3.5076,-6.601418809146342,-2.529644301302565
mp-2715878,Na6Mg2Zr6Si5S7O48,2.1587,-7.541823215675676,-2.72838127183481
mp-2715840,Na6Zr4Al4Si5S7O48,2.599,-7.4396163600000005,-2.698796550888864
mp-2715851,Na6La4Zr4Si5S7O48,2.923599999999999,-7.624984701666667,-2.819817256069044
mp-2716020,Na14Zn6Si5Sn2S7O48,1.230699999999999,-6.191640409227643,-2.192141242969232
mp-2715949,Na6Sc4Ti4Si5S7O48,1.4635,-7.60030159936937,-2.754904240978954
mp-2715953,Na6Ti4Ga4Si5S7O48,1.4804,-7.150137713333334,-2.483355116159133
mp-2715987,Na6Nb2Ga6Si5S7O48,1.3509,-6.9343702292792795,-2.339522306992467
mp-2715996,Na14Ti2Zn6Si5S7O48,1.2427000000000001,-6.403873263333335,-2.309595556546468
mp-2715853,Na14Ca4Y4Si5S7O48,3.2353,-6.899561695325204,-2.6746825272375263
mp-2715854,Na14Ca6Si5Ge2S7O48,0.0,-6.519750170569106,-2.450713813822891
mp-2715943,Na14Ca6Si5Sn2S7O48,0.0,-6.528100704512195,-2.474026689229394
mp-2715956,Na6Zr4In4Si5S7O48,1.331699999999999,-7.201521887297297,-2.514021109897872
mp-2715964,Na6Nb2Al6Si5S7O48,1.1155,-7.240133576711712,-2.5871116159789542
mp-2715986,Na6Al4Si5Sn4S7O48,1.8384,-6.886100920720722,-2.390585369717692
mp-2715876,Na14Y4Mg4Si5S7O48,3.292399999999999,-6.826305154268293,-2.619725003985492
mp-2716016,Na6Hf4Al4Si5S7O48,3.3282,-7.549488086396397,-2.732479715123098
mp-2716035,Na6Sc4Si5Sn4S7O48,1.660299999999999,-7.136339218468469,-2.500991598546521
mp-2716049,Na6Hf4Sc4Si5S7O48,2.8493,-7.8068868427027045,-2.8500464025104852
mp-2716058,Na14Ca6Hf2Si5S7O48,2.8855,-6.840908908861789,-2.641771060042403
mp-2716084,Na6Ca2Si5Sn6S7O48,0.9316000000000001,-6.736067429324325,-2.280443227645619
mp-2716166,Na8Y2Ti2Si5SO24,2.6679,-7.44732222468254,-2.9340139604016153
mp-2715932,Na14Hf2Zn6Si5S7O48,2.7018999999999993,-6.490480016869919,-2.345917017074923
mp-2715944,Na6Al4Si5Ge4S7O48,1.4261,-6.900814087432433,-2.37213875264562
mp-2715753,Na8ZnSi5Sn3SO24,1.557799999999999,-6.608136547301587,-2.464368946314313
mp-2715803,Na8NbAl3Si5SO24,2.173999999999999,-7.145933489047619,-2.8105093796079643
mp-2716038,Na6Zn2Si5Sn6S7O48,0.9625999999999991,-6.609387092162163,-2.173921168051026
mp-2716059,Na6In4Si5Ge4S7O48,0.577399999999999,-6.654502292882884,-2.179145989807783
mp-2715963,Na14Zn4Ga4Si5S7O48,2.8776,-6.260185885000001,-2.241494607034273
mp-2715985,Na14Mg6Zr2Si5S7O48,2.3399,-6.688452161056912,-2.5511406047985012
mp-2716060,Na6Ca2Hf6Si5S7O48,2.8437,-7.740112464954956,-2.8022490328708463
mp-2716001,Na6Y6Nb2Si5S7O48,0.6076,-7.625160479684685,-2.748069680843818
mp-2716028,Na6Hf4Ga4Si5S7O48,2.5189999999999992,-7.34911556981982,-2.570889890843818
mp-2715948,Na6Mg2Ti6Si5S7O48,1.1320000000000001,-7.406112975990991,-2.645552811609584
mp-2715955,Na6Ca4Nb4Si5S7O48,0.9314,-7.318465795675675,-2.587720123861836
mp-2716114,Na6Ta2Ga6Si5S7O48,2.1233,-7.011155091441442,-2.368587642055531
mp-2716150,Na2Ta4Ga4Si5S7O48,2.0945,-7.55922313052381,-2.475497827946553
mp-2716152,Na2Hf4Si5Ge4S7O48,1.6584999999999992,-7.574889758142858,-2.509153408717981
mp-2716153,Na2Zr4Si5Ge4S7O48,1.5996000000000001,-7.449304467142857,-2.464110312003694
mp-2716067,Na6Ta4Zn4Si5S7O48,1.6033,-7.205185423468468,-2.419317252591565
mp-2716076,Na14Hf2Mg6Si5S7O48,2.984,-6.73749178695122,-2.56580246483915
mp-2716167,Na8Ti3ZnSi5SO24,2.0555,-7.206569272777778,-2.785235945957171
mp-2716178,Na8In2Si5Sn2SO24,2.6793,-6.628215650555556,-2.478518715719075
mp-2716179,Na2Nb4Ga4Si5S7O48,1.4857,-7.394359929285715,-2.411527341146552
mp-2715839,Na6Y4Si5Ge4S7O48,1.2277,-7.154301115225226,-2.476246555033008
mp-2715842,Na6Mg2Si5Sn6S7O48,0.771799999999999,-6.701328218648649,-2.255842661969944
mp-2715848,Na14Al4Zn4Si5S7O48,3.308299999999999,-6.439584939065042,-2.385894646099314
mp-2716037,Na6Ca2Ti6Si5S7O48,0.9416,-7.433525567162163,-2.6628267577807563
mp-2716047,Na6La6Ta2Si5S7O48,1.6904,-7.55938453472973,-2.762121592168144
mp-2716103,Na6Ga4Si5Sn4S7O48,1.83,-6.68431241954955,-2.227579560843819
mp-2716130,Na2Y4Ta4Si5S7O48,1.8764,-8.04994576957143,-2.767306439708457
mp-2716133,Na2Ta4Al4Si5S7O48,1.9122,-7.77685986904762,-2.652135720327506
mp-2715857,Na14Ca4Ga4Si5S7O48,2.6795,-6.483808050934959,-2.428733540286305
mp-2716089,Na6Mg2Si5Ge6S7O48,0.5468000000000001,-6.710888168333334,-2.215662935978953
mp-2716094,Na6La4Si5Sn4S7O48,1.5807,-7.059828183963964,-2.499964996474449
mp-2716095,Na6Ta2Al6Si5S7O48,1.7469000000000001,-7.316449937522522,-2.615708449690664
mp-2716127,Na2La4Nb4Si5S7O48,1.2311,-7.777462330285714,-2.685606251717981
mp-2715898,Na6In4Si5Sn4S7O48,1.3295,-6.647897206351351,-2.205700687060035
mp-2715906,Na14Ca6Ti2Si5S7O48,1.221299999999999,-6.753974609105692,-2.6051220532944352
mp-2716148,Na8Hf2Ga2Si5SO24,3.656099999999999,-7.2407366954761905,-2.795014072346059
mp-2715995,Na6Ca2Si5Ge6S7O48,0.7882,-6.741577155900901,-2.236213278546521
mp-2716011,Na6Ti6Zn2Si5S7O48,1.0886,-7.308307213693694,-2.557766681879854
mp-2716045,Na6Hf6Mg2Si5S7O48,2.8911,-7.706065161396396,-2.778340374312286
mp-2716046,Na6Ca4Ta4Si5S7O48,1.4603000000000002,-7.469027195720721,-2.642842469708683
mp-2716074,Na14Mg6Si5Ge2S7O48,0.5415999999999991,-6.443012726422765,-2.401424896383867
mp-2716172,Na8Nb2Zn2Si5SO24,1.709899999999999,-6.966579936746032,-2.5982019042111393
mp-2716118,Na6Hf4In4Si5S7O48,1.2711000000000001,-7.312081706801803,-2.548392367240215
mp-2716119,Na14Ca4In4Si5S7O48,2.4298,-6.451981092073171,-2.4100247413838662
mp-2716139,Na2Si5Sn4Ge4S7O48,1.4407,-6.8592324473333335,-2.133359936479885
mp-2716164,Na2Y4Nb4Si5S7O48,1.1332,-7.887092989142857,-2.705346373717981
mp-2715918,Na14Mg4In4Si5S7O48,2.3865,-6.385105524390244,-2.361448191505817
mp-2715924,Na6Ga4Si5Ge4S7O48,1.74,-6.6968027829729735,-2.206910140483458
mp-2715941,Na14La4Zn4Si5S7O48,3.258,-6.579022157398374,-2.467262046139964
mp-2716013,Na6Zn2Si5Ge6S7O48,1.116099999999999,-6.6234954716666685,-2.138289871879855
mp-2716158,Na2Ti4Si5Ge4S7O48,1.5138,-7.357796496428572,-2.409871404908457
mp-2716062,Na6Mg4Ta4Si5S7O48,1.3683,-7.394126370810811,-2.588218934798774
mp-2716068,Na14Mg4Ga4Si5S7O48,2.7202,-6.422658560121952,-2.385883067278175
mp-2716091,Na14Zr2Zn6Si5S7O48,2.4916,-6.438223733780488,-2.328038499839151
mp-2716108,Na6Ti4Al4Si5S7O48,1.128299999999999,-7.351563370045046,-2.645998080573548
mp-2716161,Na8Y2Si5Ge2SO24,2.5296000000000003,-7.055954301428572,-2.6984776638936783
mp-2716165,Na2Nb4In4Si5S7O48,1.214799999999999,-7.350517242047619,-2.383051641289409
mp-2716171,Na8Ca2Nb2Si5SO24,1.8646999999999991,-7.177877956269842,-2.773982958496853
mp-2716197,Na8MgSi5Sn3SO24,1.633299999999999,-6.6902718906349214,-2.53767747048098
mp-2716265,Na2Hf4Zr4Si5S7O48,2.7742999999999993,-8.165200482952383,-2.875197117813219
mp-2716185,Na2Zr4Ti4Si5S7O48,1.2709000000000001,-7.9440795426666675,-2.771887435432266
mp-2716195,Na8Zr2In2Si5SO24,3.378199999999999,-7.104420320079366,-2.738622015004789
mp-2716212,Na2Ta4In4Si5S7O48,1.8052000000000001,-7.5139425817142875,-2.445584266517981
mp-2716232,Na2Zr4Si5Sn4S7O48,1.249699999999999,-7.446387427571429,-2.496247901003695
mp-2716247,Na8Zr2Sc2Si5SO24,4.0034,-7.521884282142857,-2.985929055084154
mp-2716191,Na8CaTi3Si5SO24,2.0907,-7.306277511111111,-2.867185701671456
mp-2716226,Na8Hf3MgSi5SO24,3.5798,-7.558267918333334,-2.9808436999651073
mp-2716243,Na8CaZr3Si5SO24,3.618799999999999,-7.433555280476191,-2.947877141512727
mp-2716328,Na5Nb2Si5Sn2PO24,2.498599999999999,-7.559707061965811,-2.7847458958514393
mp-2716183,Na2Ti4Si5Sn4S7O48,1.316199999999999,-7.351622344714286,-2.4387518817656
mp-2716187,Na2Nb4Al4Si5S7O48,1.2587,-7.610933847714286,-2.587102413432267
mp-2716208,Na2Sc4Nb4Si5S7O48,1.3146,-7.875922312761905,-2.7042684056227433
mp-2716244,Na8Sc2Si5Ge2SO24,2.8388,-7.060968793571429,-2.711902746274631
mp-2716256,Na8Ti2Ga2Si5SO24,2.8173999999999992,-7.066478320555556,-2.7189317456793933
mp-2716225,Na8Ga2Si5Sn2SO24,2.9878,-6.669536999761905,-2.507034242107964
mp-2716272,Na8CaSi5Ge3SO24,1.6537000000000002,-6.729451422460318,-2.5241070531397103