Material_ID,Formula,Band_Gap,Energy_per_Atom,Formation_Energy_per_Atom
mp-2217675,MgMn2Al2O6,1.5309,-7.8947758909090915,-2.700828773714733
mp-1194492,Al2TeSO9,0.0,-6.688415337307693,-2.126533324551282
mp-1221451,Na2Al2B2O7,4.24,-7.421020528076923,-2.946474082391688
mp-1193864,Al2PH3O7,5.2448,-6.986763629230769,-2.546159664876373
mp-1222601,Li3Al2CoO6,0.8303,-6.783682749166666,-2.613757498333333
mp-1227726,Ca4Mn2Al2O11,0.0,-7.544150534210526,-2.898616175308529
mp-1235052,LiAl2V4O8,0.9255999999999991,-8.180797708666667,-2.492838585555556
mp-1234955,CaAl2V4O8,0.31960000000000005,-8.133088644,-2.438684386666667
mp-1355028,Rb6Al2(Sb2O7)3,0.0,-5.490223723142857,-1.431493876285714
mp-2218790,MgNb2Al2O8,0.0,-8.228667642307691,-2.928058427307692
mp-2242052,MgAl2(CuO2)4,0.0,-6.057497696666667,-1.717355270333333
mp-755069,LiAl2FeO6,0.8077000000000001,-7.14932144,-2.393535263333333
mp-755151,Li3Al2VO6,0.0,-7.191527147916667,-2.859061117916667
mp-770727,Li3Al2FeO6,2.6790000000000003,-6.963988944791667,-2.682679986458334
mp-861240,Li3Al2CrO6,3.955199999999999,-7.222383116666666,-2.8424886366666673
mp-974451,K2Al2O3F2,4.0223,-6.362393807222222,-3.204007266055555
mp-1222911,LaCeAl2O6,0.0,-8.464009575,-3.6588221085
mp-1247660,Ca8Mn6Al2O23,0.0,-7.5560238423076935,-2.62496882775862
mp-1247637,Ca4Mn2Al2O11,0.0,-7.483822898421052,-2.838288539519055
mp-1247686,Ca8Mn6Al2O21,0.0,-7.523823315135135,-2.5936821379077353
mp-1218238,SrLa2Al2O7,2.9162,-8.094833918333334,-3.62055716875
mp-1208627,SrHo2Al2O7,4.0235,-8.066450009166667,-3.648561199583332
mp-545404,SrGd2Al2O7,0.033100000000000004,-9.609753210833333,-3.612123938749999
mp-983228,SrEu2Al2O7,0.0,-8.671400822499999,-3.305106604583334
mp-1019602,Cs2Al2B2O7,4.249,-7.382481769999999,-2.9746650486648982
mp-1194286,MgAl2(PO5)2,0.1615,-7.427055136333334,-2.798243217952382
mp-1199403,Al2P2NO11,0.46339999999999903,-6.91489551921875,-1.846898799799107
mp-1202735,Al2Fe(PO9)2,0.0,-6.186804167391305,-1.149612079968944
mp-1212272,KAl2P2O11,0.4393,-6.83251205515625,-2.214947087127231
mp-1223763,K2Al2O2F9,0.189999999999999,-5.146412701,-2.688113734966666
mp-1238496,Al2H18SO15,4.9787,-5.7357800827083345,-1.653504466041666
mp-1259854,Al2Fe3(PO5)3,1.432599999999999,-7.800464666847827,-2.436679843322981
mp-559284,Rb2Al2B2O7,4.1788,-7.398391426153846,-2.9794121660256403
mp-560633,Al2SnCl6O,3.9866,-4.83523140625,-2.08123727425
mp-720965,Al2H18SO15,0.020900000000000002,-5.425052217847222,-1.342776601180555
mp-757796,Al2H10S3O17,5.8156,-6.163464728515625,-1.851801233671874
mp-770362,Li3Al2VO6,2.2262,-7.128420050208334,-2.795954020208334
mp-770693,Li3MnAl2O6,1.409999999999999,-7.039329095625001,-2.70035396378592
mp-770589,Li3Al2FeO6,2.3764,-6.9234675631250004,-2.642158604791667
mp-770686,Li3MnAl2O6,2.1412,-7.041598845833334,-2.702623713994253
mp-850293,Al2H16S3O20,5.574,-5.957128013109757,-1.733027684268293
mp-2218061,MgAl2(CoO3)2,2.4641,-7.289039987272727,-2.463928974090909
mp-560765,Rb4Nb35Al2O70,0.0,-9.289507400360359,-2.8812530336936932
mp-2217584,MgAl2(CoO3)2,2.4082,-7.254426762727272,-2.429315749545454
mp-2217789,MgAl2(CoO3)2,2.505899999999999,-7.283183681818182,-2.458072668636363
mp-1218229,SrLa4TiAl4O15,2.6323,-8.4097119864,-3.668365309533334
mp-1203266,SrLi2Al4(PO5)4,0.0,-7.320612842580646,-2.7685582830721973
mp-1227818,BaSr11Al4(O4F)4,4.0628,-6.8181465347222225,-3.419791733888888
mp-1228149,Ba3Sr9Al4(O4F)4,4.2829999999999995,-6.831742505555556,-3.420801768611111
mp-693340,Al4Zn4P8H13N3O32,4.306999999999999,-6.7712413478125,-2.226994237474889
mp-1209043,Sr2Al4Fe3P4(H2O13)2,0.0041999999999990005,-7.319895602093023,-2.490435855199335
mp-1229285,Al4Fe2CuP4(H8O13)2,0.7703000000000001,-6.513655415283019,-1.9730309688409702
mp-709031,Al4P4H11C3NO18,1.0314,-6.795518669756096,-1.939943046337107
mp-1222576,Mn3Al4FeP4(H4O7)4,3.618999999999999,-6.861892869999999,-2.121431518792223
mp-698491,NaCa2Al4H8C4ClO20,5.1823,-6.930385278125,-2.299910925659483
mp-1195057,K3Ba3Li2Al4B6O20F,4.1017,-7.400843427307691,-3.070058654446581
mp-1182893,Al5O8,0.0,-7.717005010769231,-3.231499842307692
mp-1228138,Al5O8,0.0,-7.638919438461538,-3.153414269999999
mp-1260352,Al5(NiO4)3,0.0,-7.155451361,-2.3832602985
mp-1214826,Al5Sb3O16,0.0,-7.152338357916666,-2.557244235
mp-1248380,Al5(CuO4)3,0.0,-6.828184666999999,-2.308133105999999
mp-1252778,Al5(CoO4)3,0.32080000000000003,-7.5071404037499985,-2.531957335249997
mp-1356833,Al5(FeO4)3,0.9984000000000001,-7.857373420749999,-2.681699678749999
mp-1359741,Al5(FeO4)3,2.0496,-7.89412107225,-2.71844733025
mp-1380716,Al5(NiO4)3,0.0,-7.190591342749999,-2.418400280249999
mp-696529,Al5HO8,4.3283000000000005,-7.375281678214286,-2.967657847589286
mp-626161,Al5HO8,0.030600000000000002,-7.605217273571428,-3.197593442946428
mp-1193237,BaAl5O9,0.0,-7.6290941823333345,-3.28386064
mp-530399,LiAl5O8,5.5169000000000015,-7.652068448035714,-3.350604872559523
mp-1208102,Tm3Al5O12,4.7315000000000005,-8.298807235,-3.7212614525000003
mp-14132,Lu3Al5O12,5.1263,-8.308751153375,-3.725327474875
mp-14133,Gd3Al5O12,3.4609,-9.6662789965,-3.6496901
mp-14388,Ho3Al5O12,4.753799999999999,-8.29823915675,-3.703416676499999
mp-14387,Tb3Al5O12,4.559899999999999,-8.291185707625,-3.690335603625
mp-3384,Er3Al5O12,4.758,-8.30254531425,-3.71221693225
mp-3050,Y3Al5O12,4.5762,-8.556908746749997,-3.675374461249997
mp-21757,Eu3Al5O12,0.0,-8.794405421250001,-3.346018073500003
mp-772195,Dy3Al5O12,4.6542,-8.295139805249999,-3.697212915499997
mp-780370,Sm3Al5O12,4.1364,-8.256921319124995,-3.6439628383749962
mp-780432,La3Al5O12,3.7952,-8.260422596125,-3.614850969874999
mp-3281,Al5BO9,4.9384999999999994,-8.029205451666666,-3.366610787277777
mp-1251086,Al5(FeO4)3,1.1491999999999991,-7.87016829075,-2.69449454875
mp-1354911,Al5(CoO4)3,0.019000000000000003,-7.505726514749999,-2.530543446249999
mp-1362276,Al5(CuO4)3,0.0,-6.8530195335,-2.3329679725
mp-559916,Na17Al5O16,2.4421,-5.442573339210526,-2.266138905880217
mp-560591,NaTi2Al5O12,2.7190000000000003,-8.1252676145,-3.3634618134023
mp-2714737,Na6Nb3Al5(PO4)12,2.1942,-7.761458925990992,-2.902405824828697
mp-2714836,Na6Ta3Al5(PO4)12,3.0561,-7.8853937051801815,-2.954761313369235
mp-677638,Na27Ca3Al5(P2O7)12,4.9458,-7.031501994055944,-2.789745149011677
mp-697332,La7Ti27Al5(CuO4)24,0.0,-8.003002186792454,-2.720968036509435
mp-1173209,Sr4Nd3Ta2Al5O21,3.194,-8.320423961714285,-3.536336247490476
mp-676456,Sr6La2Ta3Al5O24,3.502600000000001,-8.361186207,-3.5335284908
mp-1198719,K3Al5P8(H21O25)2,5.0504,-6.20429627375,-1.9872516700591931
mp-1210323,NaAl5FeP4(H5O12)2,4.577999999999999,-6.936614577777777,-2.427631383387793
mp-1210892,NaMgAl5P4(H5O12)2,5.45,-6.858390539888888,-2.50139737205446
mp-771838,La4Al6O15,1.9695,-8.2465350352,-3.589059096200001
mp-560974,BeAl6O10,5.4595,-7.847671596691177,-3.395172896985295
mp-1024042,La4Al6O15,4.345299999999999,-8.2493518968,-3.5918759578
mp-680432,Sr10Al6O19,3.8941,-7.124876378500001,-3.313190807785715
mp-1215954,Zr10Al6O,0.0,-7.355038498235294,-0.7139548344117641
mp-1228266,Al6CO7,0.0,-7.377219719285714,-2.638802040178571
mp-1215691,Zr10Al6O,0.0,-7.344413401764705,-0.703329737941176
mp-1182901,Al6B5O18,0.6976,-7.688904574827586,-2.691190370545977
mp-1214854,Al6B5O18,0.46320000000000006,-7.916361070172415,-2.918646865890805
mp-7531,Ca4Al6O13,3.941799999999999,-7.559655804782609,-3.437075475869565
mp-561507,Ca4Al6O13,3.6188000000000002,-7.414156351304348,-3.291576022391305
mp-17694,Ca5Al6O14,4.441899999999999,-7.5120118254,-3.4410954873999993
mp-853024,La4Al6O15,4.434299999999999,-8.2469224174,-3.5894464784
mp-30906,Sr2Al6O11,4.2458,-7.683200291578946,-3.457627543421051
mp-680193,Ca4Al6O13,3.862299999999999,-7.532112131847827,-3.409531802934783
mp-530216,MgAl6O10,3.4029,-7.701014506911764,-3.372571268970587
mp-530233,MgAl6O10,2.691499999999999,-7.68109283,-3.352649592058823
mp-532405,MgAl6O10,1.9142000000000001,-7.6912814101470595,-3.362838172205881
mp-531782,MgAl6O10,2.7812,-7.6765506276470585,-3.348107389705882
mp-1218517,Sr4Al6MoO16,3.5997,-7.705115867777778,-3.288219811111111
mp-1218564,Sr4Al6CrO16,2.6334,-7.616701367037037,-3.243975778518519
mp-14865,Sr4Al6WO16,3.6877,-7.8035049213425935,-3.3083688602314822
mp-6120,Sr4Al6MoO16,3.5484,-7.710978476064814,-3.294082419398147
mp-1227128,CaMg2Al6O12,3.278299999999999,-7.46524725047619,-3.316888824285713
mp-6738,Al6B5(O5F)3,6.1148,-7.956120158275862,-3.272279260545977
mp-1218962,Sr15Al6(OF24)2,1.0832,-6.046813842042253,-3.939479865422535
mp-1208447,Sr4Al6SeO12,3.0557,-7.375950125217392,-3.370967043580163
mp-14150,Ca4Al6SO16,4.6682,-7.482010851851851,-3.267137142685184
mp-1227764,Ca4Al6SO16,3.848,-7.458545061481481,-3.243671352314814
mp-15312,Ca4Al6TeO12,3.146499999999999,-7.38909165173913,-3.3449745885507243
mp-1210204,Na4Al6ClO12,0.3719,-6.572963723478261,-2.7005979428485762
mp-14161,Sr4Al6SO16,4.397,-7.45015214074074,-3.281674252314814
mp-19259,Sr4Al6WO16,3.238399999999999,-7.791217333703703,-3.296081272592592
mp-19145,Ca4Al6WO16,3.891499999999999,-7.813471050740741,-3.2719391688888892
mp-9392,Sr4Al6TeO12,2.838,-7.341150237391304,-3.351497833333332
mp-8876,Ca4Al6SO12,3.7247,-7.467930152173912,-3.380549885760868
mp-8877,Sr4Al6SO12,3.3427,-7.407737472608694,-3.374821865326086
mp-9203,Al6Cd4SO12,2.7127,-6.617809923913042,-2.71227134271739
mp-9535,Al6Cd4TeO12,2.5652,-6.562885231739131,-2.700609853768116
mp-1019575,Ca4Al6SO16,4.6874,-7.510647642222222,-3.295773933055554
mp-662566,Ca4Al6SO16,4.4519,-7.505728478703703,-3.2908547695370363
mp-554152,Sr4Al6CrO16,2.254099999999999,-7.623968710370371,-3.251243121851852
mp-1182682,Ca4Al6WO16,0.974,-7.641596225185185,-3.100064343333333
mp-556028,Ca4Al6WO16,4.1286,-7.832539969444444,-3.291008087592592
mp-556889,Ca4Al6MoO16,3.713,-7.740279153148148,-3.27698727574074
mp-554242,Ca4Al6WO16,2.4101,-7.613783193333334,-3.072251311481482
mp-1228556,Al6Cu2B4O17,0.48809999999999903,-7.7723695024137935,-2.892894589022988
mp-1227671,Ca4Al6MoO16,3.9061,-7.734544948148147,-3.2712530707407392
mp-1227687,Ca4Al6WO16,3.9756,-7.823049731851852,-3.28151785
mp-1227669,Ca4Al6CrO16,2.8012,-7.647048928148148,-3.227927518888888
mp-1227619,Ca4Al6SO16,4.4998000000000005,-7.502878812592592,-3.288005103425925
mp-1226410,Cs2Na6Al6Ge7O30,0.27640000000000003,-6.536507020392158,-2.357296041423259
mp-1194752,CaAl6H12(SO7)4,5.5902,-6.559189130196078,-2.239240139313725
mp-1182935,Al6CuP4(H4O7)4,1.1084,-6.360359837999999,-1.9767211668831162
mp-1202099,Al6CuP4(H4O7)4,1.1467,-6.628424573818182,-2.244785902701298
mp-686801,Al6ZnP4(H4O7)4,2.2586,-5.91258591,-1.580573839974025
mp-775365,Al6H16C5(Cl2O)6,5.561,-5.2378227091111125,-1.353163788833333
mp-1216022,YErAl6(BO3)8,5.398100000000001,-8.391394965249999,-3.247983375833333
mp-1225326,EuYAl6(BO3)8,0.0,-8.4776610525,-3.191239635458333
mp-1227953,BaNa2Sr6Al6(OF16)2,0.8469000000000001,-6.023185593265306,-3.811560327403238
mp-1222118,Mg5Al7O16,0.0,-7.296185048571428,-3.24122944267857
mp-721592,Ca6Al7O16,0.0,-7.458583334137931,-3.40961760413793
mp-1218648,Sr6Al7ClO16,4.0463,-7.332720941333333,-3.419737000333333
mp-1227232,Ca6Al7ClO16,3.8007,-7.421783029833334,-3.446164730833333
mp-1227337,Ca6Al7O16F,3.875099999999999,-7.476591644500001,-3.498796359666667
mp-997585,La8Al7GaO24,3.6931000000000003,-8.31637883075,-3.6292226359375013
mp-997588,La8Al7BO24,3.754699999999999,-8.3562555475,-3.577816958979166
mp-997589,La8Al7InO24,3.519400000000001,-8.24786657,-3.5674334321666663
mp-997590,La8MgAl7O24,0.0,-8.28199891225,-3.6297833676250013
mp-1228228,Al7Cr(Bi2O9)2,2.5541,-7.450693378666667,-2.767509591666667
mp-2713209,Na10TaAl7(PO4)12,3.338199999999999,-7.438860869017094,-2.900515014104796
mp-2716336,Na10NbAl7(PO4)12,2.510299999999999,-7.400291026153847,-2.884581357173173
mp-1244893,Al8O3,0.0,-5.463186024090909,-1.389686964545454
mp-13875,Al8(Pb3O7)3,2.8336,-6.9233905262499995,-2.521137595328947
mp-676933,CeAl8O16,0.0,-7.0390324204,-2.4362751168
mp-1185277,K8Li31Al8O32,0.0,-5.637573367088607,-2.390397095586497
mp-1218123,Ta6Al8O27F,0.0,-8.971887651190476,-3.336769284380953
mp-1356023,Ta6Al8O27F,0.0,-4.193194206190476,1.4419241606190472
mp-1228970,Al8Zn3CoO16,3.3987,-7.2689671801785725,-2.98165895625
mp-17313,Mg3BeAl8O16,5.174899999999999,-7.574587809464285,-3.368773322678571
mp-554018,Mg3BeAl8O16,5.242000000000001,-7.55275844125,-3.346943954464286
mp-997586,La7YAl8O24,3.635099999999999,-8.44249534425,-3.698075044375
mp-997587,La7ScAl8O24,2.534499999999999,-8.393005843500001,-3.653001103500001
mp-1217828,SrTi3Al8O19,2.6519,-8.283616180000001,-3.465720377580646
mp-1200432,Ca2Al8PbO15,3.9161,-7.620529934903846,-3.316381144711536
mp-1222242,MgAl8Fe3(PO5)8,0.0,-7.667227568666666,-2.696438090535714
mp-1267554,Al8P8H34N7O36F5,5.0876,-6.481492535306122,-2.044881759486151
mp-1247898,Al8P8H34N7O36F5,4.9925999999999995,-6.479316314795918,-2.042705538975947
mp-693763,Al8P8H34N7O36F5,5.0117,-6.472199153673469,-2.035588377853499
mp-1218664,Sr3CaAl8H24(C2O11)4,5.0444,-6.827033718749999,-2.167134929204544
mp-1229326,Al8P8H22C14N4O33F2,0.673,-6.990853231813187,-1.741986173732339
mp-1019803,KAl9O14,4.3523,-7.692506735625,-3.354464808010416
mp-1228622,Al9Cr(BO9)2,3.946599999999999,-8.131353315,-3.271842929277777
mp-1197399,LaTi2Al9O19,2.9322,-8.284746346209678,-3.496087226747312
mp-1197323,CaZrAl9BO18,4.8919,-8.113828004666667,-3.44695557663889
mp-559642,CaZrAl9BO18,4.8793,-8.113945467666667,-3.447073039638889
mp-1227545,BaSrMn2Al9PbO20,1.233,-7.755149325882354,-3.09875275958418
mp-760795,Al10ZnO16,4.326799999999999,-7.666537654814814,-3.300505136666666
mp-757911,MgAl10O16,4.4934,-7.770663565185185,-3.390900439444444
mp-28499,Al10Ge2O19,2.2265,-7.677504259677419,-3.138372869193547
mp-1334368,Al10(Bi2O9)3,0.0,-6.94646746744186,-2.425748600116279
mp-1358345,Al10(Cu2O7)3,0.0,-6.782915688648648,-2.297559487972973
mp-1228063,Ba3TiAl10O20,3.2524,-7.86460790117647,-3.450860982450979
mp-1019529,Ba8Al10B12O41,4.4373000000000005,-7.977914515211268,-3.24796155359155
mp-1210794,Na2CaAl10(H3O10)2,0.0,-6.135873366153847,-1.995488277186119
mp-1229215,Al11O18,0.0,-7.6235383068965525,-3.131654437241379
mp-675682,Al11NO15,4.052600000000001,-7.8315168533333335,-3.247849188518518
mp-759230,NaAl11O17,4.4497,-7.725568539310318,-3.358037780909604
mp-760755,KAl11O17,4.6602,-7.733135690862043,-3.372858417146526
mp-1183021,Al11(PO4)12,0.06010000000000001,-7.817819584788732,-2.977127406277665
mp-1214955,Al11NO17,0.0,-7.627839829827586,-3.01904848637931
mp-1252068,KAl11O17,4.6859,-7.740400095862042,-3.3801228221465243
mp-2206289,Al11TlO17,5.323600000000001,-11.103520318620689,-3.217115749655171
mp-3405,NaAl11O17,4.491,-7.727934880344799,-3.360404121944086
mp-766387,RbAl11O17,4.7302,-7.731994610344799,-3.3769185659482472
mp-766248,Al11InO17,3.721,-7.709498603275862,-3.293090156436781
mp-860798,NaAl11O17,4.372299999999999,-7.719719434655173,-3.35218867625446
mp-1376797,NdAl11O18,0.9930000000000001,-6.924799311333333,-2.4237066562500003
mp-757092,NdAl11O18,2.6431,-7.876005915666667,-3.374913260583334
mp-780987,NdAl11O18,0.0,-4.358883847666666,0.142208807416666
mp-758571,Al11TlO17,4.590300000000001,-7.711114470344827,-3.308075045114943
mp-849760,Al11AgO17,3.196799999999999,-7.667155519482758,-3.247858661091953
mp-757376,KAl11O17,4.7425000000000015,-7.726693940344828,-3.36641666662931
mp-766293,Al11AgO17,3.020899999999999,-7.667494924655172,-3.248198066264368
mp-863358,KAl11O17,4.675599999999999,-7.739615098275862,-3.379337824560344
mp-532424,KAl11O17,4.514900000000001,-7.7330732429310345,-3.372795969215517
mp-676014,NaAl11O17,4.4114,-7.724244844482759,-3.356714086082045
mp-1227018,EuMgAl11O19,0.0,-7.9453208809374996,-3.347471657343749
mp-1223152,LaMgAl11O19,4.212899999999999,-7.89762741296875,-3.467031464687499
mp-1229270,Al11H2NO17,0.229299999999999,-7.49727475064516,-2.96678178814516
mp-685242,Sr7Al12O25,1.162299999999999,-7.4381393059090914,-3.336027221477273
mp-1185669,Mg16Al12O,0.0,-2.734430635517241,-0.11434818017241301
mp-1212749,EuAl12O19,0.169599999999999,-8.09191259187503,-3.42796631156253
mp-1227489,CaAl12O19,4.345099999999999,-7.8342050921875,-3.429087312968749
mp-1218531,SrAl12O19,4.4592,-7.83369470078125,-3.43836354
mp-757333,Al12PbO19,4.519,-7.7623381453124995,-3.303875141406249
mp-883306,LaAl12O19,0.0,-7.8827426121875,-3.3860496071875
mp-28234,CaAl12O19,4.3185,-7.83410060515625,-3.4289828259374993
mp-6995,SrAl12O19,4.446499999999999,-7.83326054875,-3.43792938796875
mp-1185684,Mg16Al12O,0.0,-2.737616405172413,-0.11753394982758501
mp-765688,LaAl12O19,0.0,-7.904690028125,-3.407997023124999
mp-1218595,Sr6Al12Bi2O27,3.5117000000000003,-7.464060161276594,-3.283709219680849
mp-1214214,Ca14Al12Zn4O35,0.5589000000000001,-7.034121672923078,-3.168846013
mp-1210313,Na8Al12SO28,0.0,-6.738099984081633,-2.689897047419069
mp-1215158,Al12Ga(S2O33)2,0.0,-5.361230103373494,-0.6492557590060241
mp-1222730,Na2Ca17Al12O36,3.795499999999999,-7.186224317985075,-3.307834084294905
mp-1229336,Al12Ge(Se2O35)2,0.0,-5.127806982298851,-0.416187969935345
mp-1181018,NaAl12Ga(S2O33)2,0.063099999999999,-5.373586515952381,-0.7017342378438011
mp-1224323,KNa3Al12H24(SO7)8,5.8109,-6.447743897115384,-2.199858037801806
mp-532016,Ca12Al14O33,2.1738,-7.5007893386440685,-3.43658640059322
mp-33318,Ca11Al14O32,3.4332000000000003,-7.532547117192982,-3.447732863508771
mp-5512,Sr4Al14O25,4.157500000000001,-7.714793176395349,-3.461146685581395
mp-39003,Mg3Al14O24,4.432200000000001,-7.677638614634146,-3.382991400365854
mp-1094063,Sr12Al14O33,1.589999999999999,-7.40352480898305,-3.403017828220338
mp-530149,Ca12Al14O33,2.0399,-7.499897468305084,-3.435694530254236
mp-765944,Al15Fe9O32,2.1445,-8.009765935357143,-2.817826997857143
mp-801915,Al15Fe9O32,1.3242,-6.796574467857143,-1.6046355303571431
mp-555471,La3Ti5Al15O37,1.4069,-8.301826016583332,-3.409431416027777
mp-1196667,Al16As9O76,0.0,-5.816021100891089,-1.083294838985149
mp-675472,Al17(NO7)3,4.199000000000001,-7.812206678780488,-3.114723667804878
mp-1208847,Sr2Ti5Al17O38,0.0,-8.179392629354838,-3.428430958978495
mp-757340,Al19CrO30,3.9429,-7.954609019399999,-3.369452651599999
mp-1216239,Y9Er3Al20O48,4.5136,-8.492745362125,-3.684012552499999
mp-1216268,Y9Lu3Al20O48,4.5394,-8.493758784875,-3.686752151125
mp-1227989,BaSrAl20(CuO17)2,0.0,-7.656512335517241,-3.260788074482758
mp-1256766,PrAl22O34,0.126999999999998,-7.87162392754386,-3.390416666345029
mp-530984,Al22PbO34,3.6212,-7.811454545789474,-3.349244203684211
mp-531590,SrAl22O34,4.699400000000001,-7.847772062807018,-3.421004158947369
mp-674298,Al22CdO34,2.3255,-7.74082234508772,-3.326903878070176
mp-530358,PrAl22O34,0.0,-7.8709643854385964,-3.389757124239765
mp-530682,GdAl22O34,0.0,-8.036454371929825,-3.3924286759649123
mp-532198,LaAl22O34,0.0,-7.880693130438596,-3.397020331578947
mp-765486,PrAl22O34,0.0,-7.86283299,-3.381625728801169
mp-530826,Mg7Al22O40,3.5233,-7.576158769420289,-3.348124007608695
mp-1247830,Al23O17F35,0.0,-6.588330418266667,-3.4250182276
mp-531864,Al24Zn3O40,0.0,-7.546493859402985,-3.194382054179105
mp-863387,K6Al32O51,2.822399999999999,-7.508303341123596,-3.249958889983145
mp-1178196,LaAl33O51,2.736999999999999,-7.900930207411766,-3.419918198588236
mp-530754,Mg5Al34O56,0.0,-7.618807604947368,-3.27577871468421
mp-1245113,Al38O21,0.0,-6.027130575932204,-1.853587141271187
mp-1245250,Al38O21,0.0,-6.01963783440678,-1.846094399745763
mp-685394,Eu2Al42O65,0.24849999999999903,-7.871104879082568,-3.288463833073394
mp-667379,Ba7Al64O103,4.252400000000001,-7.831737247873564,-3.447888620201149
mp-2217878,MgMn2Al2O6,2.677,-7.959629276363636,-2.765682159169279
mp-2217896,MgMn2Al2O6,2.5865,-7.904633383636363,-2.710686266442006
mp-578650,Na3Nb34Al2O64,0.0,-9.352767331165047,-2.832085878001338
mp-1191489,CaAl2(OF)4,0.662999999999999,-6.118340611818183,-2.759794697272727
mp-1203850,Ca3Al2SO16,0.33589999999999903,-6.029014436363636,-1.628392302386363
mp-1214928,Al2P2NO8,3.667,-7.549296404999999,-2.4535991360989
mp-556178,BaAl2(GeO4)2,4.0798,-7.380708577884615,-2.900718550961538
mp-643346,Al2Ge(HO3)2,3.8758,-6.903441123181818,-2.485961266590909
mp-734097,CaAl2(OF3)2,0.5736,-6.099028699090909,-3.292138899090909