Material_ID,Formula,Band_Gap,Energy_per_Atom,Formation_Energy_per_Atom
mp-1225908,CsTi3AlO8,2.5328,-8.500041547692307,-3.275140202281167
mp-1234040,MgAl(Bi3O5)4,0.5566999999999991,-6.163971460588233,-1.7223338822058811
mp-1247593,Ca4Mn3AlO10,0.13139999999999902,-7.646107808541667,-2.7164616265301733
mp-1247717,Ca4Mn3AlO11,0.084799999999999,-7.632054972960527,-2.701444852897006
mp-1253719,Ba2AlFe3O7,1.2784,-7.472184743076923,-2.2699296373076923
mp-1254576,AlNi(WO4)2,1.9588,-8.50042751875,-2.248289101249999
mp-1254937,Ca2AlCoO5,0.0,-7.194360613888888,-2.791027576666666
mp-1261382,Mg5AlH21O17,2.9647,-5.590318872272727,-1.7877789130965902
mp-1264182,AlV4(CuO4)3,0.39370000000000005,-7.5694434274999995,-1.9817258185000002
mp-1251151,Ca2AlSnO5,1.6406,-6.938646133333333,-2.88240697
mp-1257650,AlRe(WO4)2,0.0,-8.754301945833333,-1.946498734375
mp-1291925,Li2AlCoO4,0.030400000000000003,-6.6784904471875,-2.367405159270833
mp-1368847,Ca2AlBiO5,2.3709,-6.819101161111111,-2.776143947222222
mp-1387660,AlSb(WO4)2,0.0,-5.267539109166667,0.8470046883333331
mp-2228023,MgAlCrO4,0.8121,-7.55619503,-2.581775410714286
mp-677288,Mg5AlH21O17,1.7156,-5.5712539375,-1.768713978323863
mp-721369,AlH12(OF)5,4.5121,-4.999733713695653,-1.573792844347826
mp-769572,LiAlVO4,1.4435,-7.685515778571427,-2.752623094761904
mp-768763,Li4AlCr3O8,3.1543,-7.565754564687499,-2.5704984555208332
mp-1217913,TaTiAlO6,1.9264000000000001,-9.302751101666665,-3.392110943962961
mp-1025206,Eu2AlNO3,0.0,-9.478226308571427,-2.69194624857143
mp-1217962,SrSmAlO4,3.2398,-7.808437828571428,-3.5300901035714283
mp-1025275,Ce2AlNO3,0.0,-8.58596871142857,-3.042877807142855
mp-1217963,SrPrAlO4,2.9327,-7.794724215714285,-3.505392873095238
mp-1025277,Pr2AlNO3,0.7129000000000001,-8.262158287142856,-3.045204071904761
mp-1025276,Sm2AlNO3,1.0053,-8.31232139,-3.1173344100000002
mp-1218150,SrNdAlO4,3.0255,-7.802906198571428,-3.517478288214285
mp-1218276,SrEuAlO4,0.0,-8.340188062857143,-3.2661937978571443
mp-1218184,SrLaAlO4,2.8439,-7.8585760914285725,-3.549168227857143
mp-1218323,SrCeAlO4,0.0,-7.93146926,-3.479069572857142
mp-1227092,CaGdAlO4,2.3719,-9.232178374285715,-3.572300950000001
mp-1227060,CaSmAlO4,3.1214,-7.90094646,-3.577859907857143
mp-1227041,CaNdAlO4,2.8948,-7.889025464285714,-3.5588587267857132
mp-1227044,CaYAlO4,3.2897,-8.155324588571428,-3.576451555714285
mp-546679,Nd2AlNO3,1.061999999999999,-8.286210828571429,-3.077063477857142
mp-1182875,AlHg2O2F5,0.0,-4.313969837499999,-1.9309594585000012
mp-1189716,AlHg2O2F5,0.0,-4.0909008475,-1.707890468500001
mp-1193850,Ca2AlP2O9,0.0,-7.593565993214286,-3.085039444234694
mp-1019802,KAl(PO3)4,5.179699999999999,-7.5698291991666675,-2.796808548378968
mp-1045829,AlCu3(NiO3)4,0.0,-5.9302461210000015,-1.00328239
mp-1104925,KAlCr2O10,0.0,-6.813027677857144,-1.551409781946429
mp-1210191,NaAl(SO4)2,5.7223,-6.7178232866666665,-2.305514638031608
mp-1214890,AlCo(OF)6,0.0,-4.651734945357143,-0.9338868860714291
mp-1214974,AlCuO4F,0.0,-5.526099198571429,-1.3046022135714281
mp-1222577,LiAlNi3O5,3.0743,-6.6973981795,-1.923926803333333
mp-1222767,Li2AlCoO4,0.7431000000000001,-6.698279495,-2.387194207083333
mp-1299391,LiAlVO4,1.7253,-7.738367507142857,-2.805474823333334
mp-754006,Li4AlCr3O8,3.1734,-7.5637125328125,-2.568456423645833
mp-755675,Li4AlCr3O8,3.1783,-7.564385488749999,-2.569129379583333
mp-1031524,LiMg6AlO8,6.337700000000001,-6.422449376249999,-2.983636449583333
mp-1031529,NaMg6AlO8,5.831100000000001,-6.28285420625,-2.879491410086206
mp-1031514,LiMg6AlO8,5.8199000000000005,-6.4313252525,-2.9925123258333333
mp-1031510,NaMg6AlO8,5.330800000000001,-6.307198256249999,-2.903835460086206
mp-1031505,KMg6AlO8,4.5747,-6.021285605625,-2.631069750453124
mp-1031545,RbMg6AlO8,3.665199999999999,-5.92281017625,-2.542021549218749
mp-1032871,HfMg6AlO8,0.11819999999999901,-6.5859070343749995,-2.644077472499999
mp-1032931,HfMg6AlO8,0.0,-6.64887625,-2.707046688124999
mp-1032986,Mg6AlBO8,2.9701999999999993,-6.242698326249999,-2.505731093072916
mp-1033065,CsMg6AlO8,2.0891,-5.722254670624999,-2.346000824978448
mp-1033075,CaMg6AlO8,0.002499999999999,-6.27475226,-2.829897019999999
mp-1033032,Mg6NbAlO8,0.657999999999999,-6.549346305625,-2.598509493125
mp-1033060,Mg6AlCO8,1.8686,-6.254006569375,-2.35770972859375
mp-1032987,Mg6AlBO8,2.198699999999999,-6.28966468625,-2.5526974530729163
mp-1033058,KMg6AlO8,4.412599999999999,-6.084538853124999,-2.6943229979531242
mp-1033014,Mg6AlCdO8,0.325499999999999,-5.986426392499999,-2.606920508124999
mp-1033028,SrMg6AlO8,0.024900000000000002,-6.1574265225,-2.732144519375
mp-1033029,Mg6NbAlO8,0.522300000000001,-6.5202034287499995,-2.569366616249999
mp-1033034,Mg6AlCrO8,0.08900000000000001,-6.63074339125,-2.707922676875
mp-1033056,SrMg6AlO8,0.5228,-6.123457290625,-2.6981752875
mp-1033062,CaMg6AlO8,0.009800000000000001,-6.288783239374999,-2.843927999374999
mp-1033070,Mg6TiAlO8,0.12910000000000102,-6.561845468125,-2.748871969583333
mp-1033099,Mg6AlCoO8,1.134499999999999,-6.51284217,-2.7474983775
mp-1032999,Mg6AlCO8,1.979999999999999,-6.330099680625,-2.4338028398437492
mp-1033087,Mg6TiAlO8,0.067399999999999,-6.57225147375,-2.759277975208333
mp-1032988,Mg6AlCdO8,0.25,-6.032098486874999,-2.652592602499999
mp-1033019,Mg6AlBiO8,0.7968000000000001,-5.9217495243750005,-2.359117132499999
mp-1033042,RbMg6AlO8,3.5473,-5.833720781875,-2.45293215484375
mp-1033073,Mg6AlBiO8,1.337199999999999,-6.014506090625,-2.45187369875
mp-1033059,BaMg6AlO8,0.0007999999999990001,-5.9914818,-2.55204061875
mp-1033061,BaMg6AlO8,0.48430000000000006,-5.9259418675,-2.48650068625
mp-1033094,Mg6AlNiO8,3.696399999999999,-6.431406611875,-2.750642821875
mp-1033115,Mg6AlCoO8,2.265299999999999,-6.483249176875,-2.717905384375
mp-1033120,Mg6AlCrO8,0.46020000000000005,-6.674800281875,-2.7519795675000003
mp-1033130,Mg6AlZnO8,0.39890000000000103,-6.142343570625,-2.7441043475
mp-1033146,Mg6MnAlO8,0.367700000000001,-6.622310549375,-2.73017934612069
mp-1033157,Mg6AlSnO8,0.5936,-6.102545714374999,-2.532442225937499
mp-1033104,Mg6AlZnO8,0.015000000000000001,-6.102013118749999,-2.703773895624999
mp-1033127,YMg6AlO8,1.9342000000000001,-6.4644657325,-2.738142266249999
mp-1033144,Mg6AlCuO8,1.954499999999999,-6.298028443124999,-2.722322778749999
mp-1033108,YMg6AlO8,0.7544000000000001,-6.444082145625,-2.717758679374999
mp-1033116,Mg6AlVO8,0.4555,-6.618423138125,-2.73117376125
mp-1033159,Mg6AlVO8,1.3612,-6.6303568725,-2.743107495625
mp-1033174,Mg6MnAlO8,0.45230000000000103,-6.609400375625,-2.71726917237069
mp-1033183,Mg6AlFeO8,1.3353000000000002,-6.512088963125,-2.6632073899999993
mp-1033141,Mg6AlSnO8,0.619699999999999,-6.027893102499999,-2.457789614062499
mp-1033139,Mg6AlCuO8,2.340799999999999,-6.34429895125,-2.768593286875
mp-1033177,Mg6AlFeO8,2.007200000000001,-6.5583157775,-2.709434204375
mp-1033923,Mg6AlNiO8,2.651,-6.37745331125,-2.696689521249999
mp-1036437,Mg14AlCO16,0.0,-6.289977634375,-2.697221458984375
mp-1036515,BaMg14AlO16,0.0,-6.1451937446875,-2.7808653990625
mp-1036531,Mg14TiAlO16,0.0,-6.45366260625,-2.902568101979167
mp-1036556,Mg14AlCuO16,0.352799999999999,-6.327515510937499,-2.895054923749999
mp-1036439,Mg14AlCdO16,0.0,-6.176033778124999,-2.841673080937499
mp-1036544,NaMg14AlO16,3.8442,-6.3193988534375,-2.973109700355603
mp-1036563,KMg14AlO16,1.8639000000000001,-6.212288661874999,-2.8725729792890613
mp-1036582,Mg14AlSnO16,0.0,-6.19511183,-2.76545233078125
mp-1036521,Mg14NbAlO16,0.0,-6.432446139375,-2.812419978125
mp-1036398,Mg14AlBO16,0.552099999999999,-6.296632744375,-2.783541372786458
mp-1036478,HfMg14AlO16,0.0,-6.4531547034375,-2.8376321675
mp-1036503,CsMg14AlO16,0.0,-6.0258875565625,-2.693152878739224
mp-1036522,SrMg14AlO16,0.0,-6.239628099062499,-2.8823793424999993
mp-1036480,RbMg14AlO16,0.3778,-6.130422563124999,-2.795420494609374
mp-1036585,Mg14AlCrO16,0.0,-6.491946356875,-2.8859282446875003
mp-1036452,Mg14AlBiO16,0.0,-6.1253429246875,-2.69941897375
mp-1036528,LiMg14AlO16,4.081900000000001,-6.3779594790625,-3.013945260729166
mp-1036613,Mg14AlCoO16,0.4767,-6.4243353309375,-2.8970556796875
mp-1036637,Mg14MnAlO16,0.0,-6.47718377875,-2.886510422122844
mp-1036617,Mg14AlVO16,0.0,-6.48163745375,-2.8934050103125
mp-1036621,YMg14AlO16,0.0,-6.3803983465625,-2.8726288584375
mp-1036615,Mg14AlNiO16,0.13010000000000002,-6.360447067500001,-2.8754574175
mp-1036644,CaMg14AlO16,0.0,-6.3117136634375,-2.9446782884375002
mp-1036614,Mg14AlZnO16,0.0,-6.229042726875,-2.8853153603125
mp-1036709,Mg14AlFeO16,0.0,-6.432338588437499,-2.863290046874999
mp-1037722,HfMg30AlO32,0.0,-6.391032699999999,-2.938663677031249
mp-1037717,HfMg30AlO32,0.0,-6.38759009984375,-2.935221076874999
mp-1037969,SrMg30AlO32,0.0,-6.29604337359375,-2.972811240312499
mp-1037957,SrMg30AlO32,0.0,-6.29179003359375,-2.968557900312499
mp-1037958,BaMg30AlO32,0.0,-6.257182068125,-2.9304101403125
mp-1037954,CsMg30AlO32,2.995199999999999,-6.20443932828125,-2.893464234369612
mp-1037955,Mg30AlBO32,2.470799999999999,-6.320368504999999,-2.919215064205728
mp-1037970,Mg30AlCdO32,0.6122999999999991,-6.2546299925,-2.94284188890625
mp-1037998,Mg30AlCdO32,0.7916000000000001,-6.25895869625,-2.9471705926562493
mp-1038042,Mg30AlCrO32,0.0,-6.41211449875,-2.96449768765625
mp-1038188,Mg30AlBO32,2.2245,-6.315207328281249,-2.914053887486978
mp-1038189,Mg30AlCO32,1.8304,-6.323374492499999,-2.8823886498046862
mp-1038196,Mg30NbAlO32,0.0,-6.385594941874999,-2.930974106249999
mp-1038203,RbMg30AlO32,3.951600000000001,-6.2611392840625,-2.949030494804687
mp-1038206,NaMg30AlO32,4.381299999999999,-6.334888625,-3.017136293459051
mp-1038205,Mg30AlBiO32,0.29289999999999905,-6.24805801265625,-2.890488282187499
mp-1038195,Mg30AlCO32,0.0,-6.307027442968749,-2.8660416002734372
mp-1038202,Mg30AlBiO32,0.0,-6.228057275625,-2.870487545156249
mp-1038197,RbMg30AlO32,3.793599999999999,-6.250971596249999,-2.938862806992187
mp-1038199,NaMg30AlO32,4.3299,-6.33010854171875,-3.012356210177802
mp-1038200,BaMg30AlO32,0.0,-6.249657169531249,-2.922885241718749
mp-1038204,LiMg30AlO32,4.475700000000001,-6.36049539234375,-3.033880528177083
mp-1038214,Mg30NbAlO32,0.0,-6.386437939843749,-2.931817104218749
mp-1038225,CsMg30AlO32,3.166799999999999,-6.217595690937499,-2.906620597025861
mp-1038308,Mg30AlCuO32,1.228499999999999,-6.336715207499999,-2.975877158906249
mp-1038310,Mg30AlCuO32,1.1042,-6.3311925565625,-2.9703545079687492
mp-1038234,KMg30AlO32,4.1457,-6.2852421692187495,-2.97077657292578
mp-1038224,Mg30AlSnO32,0.0,-6.2672461773437504,-2.907808672734374
mp-1038227,LiMg30AlO32,4.4312000000000005,-6.35678306234375,-3.030168198177083
mp-1038238,Mg30TiAlO32,0.0,-6.390932534062499,-2.9707775269270833
mp-1038258,Mg30AlSnO32,0.0,-6.273176414374999,-2.913738909765624
mp-1038312,Mg30AlZnO32,0.0,-6.278903606875,-2.9624321685937502
mp-1038237,Mg30TiAlO32,0.0,-6.393935106874999,-2.9737800997395833
mp-1038272,Mg30AlCrO32,0.0,-6.41825452171875,-2.970637710624999
mp-1038325,YMg30AlO32,0.45279999999999904,-6.361692979374999,-2.963200480312499
mp-1038314,Mg30AlNiO32,1.7857,-6.358940265156249,-2.971837685156249
mp-1038340,Mg30AlCoO32,1.191199999999999,-6.38079476625,-2.9725471856250003
mp-1038344,Mg30AlCoO32,1.343799999999999,-6.3848660275,-2.9766184468750003
mp-1038365,Mg30MnAlO32,0.0,-6.4066768253125,-2.966732391998922
mp-1038319,CaMg30AlO32,0.0,-6.3251864103125,-2.997060967812499
mp-1038358,Mg30AlNiO32,1.3278,-6.3518753765625,-2.9647727965625
mp-1038339,Mg30AlVO32,0.0,-6.4095478896875,-2.97082391296875
mp-1038353,Mg30AlZnO32,0.726399999999999,-6.28173627953125,-2.9652648412500002
mp-1038346,CaMg30AlO32,0.0,-6.327296780625,-2.999171338124999
mp-1038321,YMg30AlO32,0.103699999999999,-6.360688375625,-2.9621958765625003
mp-1038408,Mg30AlVO32,0.0,-6.4095469240625,-2.97082294734375
mp-1038409,Mg30MnAlO32,0.0,-6.40792204453125,-2.9679776112176723
mp-1038385,Mg30AlFeO32,0.0,-6.3827023775,-2.95357035171875
mp-1038379,Mg30AlFeO32,0.8690999999999991,-6.3949738159375,-2.96584179015625
mp-1042222,Ba2AlAg3O8,0.0,-5.3741174592857135,-1.395829831785713
mp-1041926,Ba2Ti3AlO8,0.0,-8.081382514285714,-3.020404671428571
mp-1042329,Ba2AlBi3O8,0.0,-6.04665876,-1.843993282857143
mp-1048171,Ba2AlCr3O8,0.0,-7.871237530714285,-2.433640662142856
mp-1042435,Ba2AlCu3O8,0.0,-5.992898656428571,-1.745410530714285
mp-1048103,Ba2Mn3AlO8,0.0,-7.6731580049999994,-2.340782317413792
mp-1048153,Ba2AlFe3O8,0.0,-7.331961927142856,-2.147870685714285
mp-1048180,Ba2AlCo3O8,0.0,-6.813302179285714,-1.9156261857142851
mp-1042344,Ba2AlSn3O8,0.0,-6.355778083571429,-2.127497418214286
mp-1048143,Ba2AlW3O8,0.0,-8.119885532857143,-1.9740566442857141
mp-1042580,Ba2AlSb3O8,0.0,-6.260840701428571,-2.006968025
mp-1048224,Ba2AlNi3O8,0.0,-6.370764118571428,-1.763076705
mp-1098637,KMg30AlO32,4.2468,-6.29314376234375,-2.978678166050779
mp-1099234,CsMg6AlO8,0.0,-5.613139155624999,-2.236885309978448
mp-1147547,Sr2TaAlO6,1.0943,-8.30244337,-3.433930811733333
mp-1235313,SrLiAlO3,3.2866,-6.417283551666666,-2.718815251388888
mp-1247656,Ca4Mn3AlO11,0.0,-7.527844560526316,-2.597234440462795
mp-1041813,AlMo(WO4)2,1.4383,-8.937891142916667,-2.26362660625
mp-1041645,AlSb(WO4)2,0.0,-8.2568505975,-2.1423068
mp-1041685,AlCo(WO4)2,0.0,-8.53400474,-2.169092985833332
mp-1041805,AlCr(WO4)2,0.0,-9.010770477916667,-2.435889494583334
mp-1043216,AlFe(WO4)2,1.4742,-8.760219953333333,-2.2839244916666672
mp-1041870,AlTe(WO4)2,0.43720000000000003,-8.110809313333332,-2.078406794722221
mp-1042105,AlV(WO4)2,1.316999999999999,-9.0116766775,-2.484224144166666
mp-1042146,AlBi(WO4)2,2.3077,-8.3492277775,-2.254597890833333
mp-1042285,AlSn(WO4)2,0.16970000000000002,-8.389060644999999,-2.284469296249999
mp-1042310,AlRe(WO4)2,0.0,-8.873205555,-2.065402343541667
mp-1047613,TiAl(WO4)2,0.29089999999999905,-9.065680691666666,-2.6372626627777773
mp-1047653,TaAl(WO4)2,0.0,-9.357883527083333,-2.598512537694444
mp-1047674,AlAg(WO4)2,1.5659,-8.118998727916667,-2.111626893888888
mp-1047774,MnAl(WO4)2,0.0,-8.921891756666668,-2.387930121494253
mp-1047770,AlCu(WO4)2,0.927199999999999,-8.29081202125,-2.178751104583334
mp-1194217,AlP3NO10,3.3516,-7.113088581,-1.925762967595238
mp-1342585,AlNi(WO4)2,0.0,-8.372854924166665,-2.120716506666665
mp-556596,AlP3(HO2)6,5.7133,-6.739221129318182,-2.205651715746752
mp-557607,AlMoP2O9,2.8184,-8.097620112307693,-2.7165568787912093
mp-1020030,LiAl(GeO3)2,3.5862,-6.963075698999999,-2.504243655333333
mp-1194859,AlV(TeO4)2,2.836099999999999,-7.028983081458333,-2.137334604236111
mp-1197607,K3Al(PO4)2,4.521,-6.9480269408333335,-2.837004077335883
mp-1197957,Na3Al(AsO4)2,3.3791,-6.295657375357143,-2.246037998866995
mp-1198190,SrAl(OF2)2,0.0,-5.6969726034375014,-2.823305674687501
mp-1199224,NaAl(SO7)2,0.0,-5.473264823749999,-0.8824053896599601
mp-1203200,AlPb3OF9,0.13670000000000002,-5.32557759875,-2.678709783035713
mp-1203218,Rb9Al(HO2)4,1.4514,-4.6505314279545455,-1.662588869886364
mp-1208364,TbAlGe2O7,3.679699999999999,-7.626483514318181,-2.87509967810606
mp-1208925,SmAlGe2O7,3.6256,-7.62586719,-2.8671449436363643
mp-1209642,PrAlGe2O7,3.575,-7.618458641590909,-2.852746820378787
mp-1211910,LaAlGe2O7,3.5206,-7.657884118863635,-2.8793963297727263
mp-1212574,GdAlGe2O7,0.3146,-8.466703470681818,-2.857296123863635
mp-1212768,EuAlGe2O7,0.0,-7.934106258863636,-2.669063487045454
mp-1213060,DyAlGe2O7,3.6402,-7.624086854318182,-2.874474663106059
mp-1214940,AlP(HO2)2,2.3234,-6.199067175,-1.731163893392857
mp-1214960,AlH5(SeO4)2,4.4382,-5.805589022187499,-1.599531583496093
mp-1217718,Tb2AlFeO6,2.4911,-8.3966702735,-3.278761241833332
mp-1253150,LiAlFeO4,0.09149999999999901,-7.123723848571428,-2.278529001904762
mp-14511,NaAlGeO4,3.9677000000000002,-6.854443976309524,-2.639848478649424
mp-16777,NaAlP2O7,5.2801,-7.494972436590908,-2.899156918924092
mp-17031,KAlP2O7,5.2966,-7.511704499318181,-2.935011804912336
mp-17477,AlFePO5,0.5231,-8.0470451153125,-2.750685666517856
mp-24398,AlP(H2O3)2,5.4241,-6.54396345125,-2.174840022886904
mp-542656,Cs2AlP3O10,4.6788,-7.30960034234375,-2.854127742546183
mp-555548,MgAlPO5,5.0864,-7.5918558096875,-3.150440260267856
mp-556655,Li2AlBO4,5.0344,-7.166889580625,-2.9125574113541663
mp-557177,Li2Al(BO2)5,5.6317,-7.933503547083333,-2.909059632222222
mp-557268,KLi4AlO4,4.149,-5.640831634625,-2.410383530683333
mp-558114,Sr4NbAlO8,2.961999999999999,-7.5962487648214285,-3.296228674107142
mp-560271,AlCuAsO5,0.4476,-6.6956514375000005,-2.0388126803125
mp-560921,NaAlAs2O7,2.7304,-6.654811970681819,-2.1945148153526652
mp-561473,CaTaAlO5,3.9897,-8.776998005625,-3.482259470916666
mp-561447,K3AlB8O15,5.217,-7.866139780277778,-2.873760734354937
mp-6016,NdAlGe2O7,3.5773,-7.6231801747727275,-2.859952355909091
mp-6596,MgAlPO5,5.128,-7.595941061562501,-3.154525512142857
mp-699431,AlH4(SeO4)2,0.0,-5.803652458666666,-1.543535619979166
mp-707784,AlH18(NO6)3,3.3987,-5.764994781,-1.291577204687501
mp-721876,AlP2H5O9,5.5286,-6.671126158970588,-2.195596504884454
mp-722269,AlP3(HO5)2,5.9782,-7.31422057375,-2.547849365401785
mp-722527,AlH11SO10,5.6133,-5.749465847934782,-1.631623401249999
mp-727215,AlPb3OF9,1.604099999999999,-5.451319557142858,-2.8044517414285712
mp-770360,Li2AlVO4,2.3996,-7.2539290025,-2.699032545833333
mp-770704,Li2AlFeO4,3.0913,-6.966175347812499,-2.488014498645833
mp-770610,Li2AlCoO4,1.7004000000000001,-6.642036505625001,-2.330951217708334
mp-770702,Li2AlFeO4,2.4043,-6.887980816874999,-2.409819967708332
mp-770400,Li2AlNiO4,1.7424,-6.341810825625,-2.199885542708333
mp-770750,Li3Al(FeO3)2,2.155299999999999,-6.936961015416667,-2.261948275416667
mp-770698,Li2AlFeO4,2.9753,-6.896636225,-2.4184753758333333
mp-770551,Li2MnAlO4,1.1656,-7.13623167375,-2.571571564324713
mp-771906,Li2AlCoO4,1.5775000000000001,-6.642876404687501,-2.331791116770834
mp-772430,Li2AlFeO4,2.1757,-6.953335229687499,-2.475174380520832
mp-849801,Li2AlCoO4,0.8461000000000001,-6.5985276990625,-2.287442411145833
mp-15736,Sr3AlO4F,4.048999999999999,-6.811994845555556,-3.419933012777777
mp-1196181,AlC8BrO5,0.0,-7.490875589416666,-0.5607655007499991
mp-1201838,AlH16(C3O7)2,3.3823,-6.279724364222973,-1.341570691925675
mp-2713962,Ta3Al(PO4)6,2.4752,-8.622866677843138,-3.017270685780112
mp-2713950,Nb3Al(PO4)6,1.8073000000000001,-8.355625021568628,-2.905819250329132
mp-1220763,Nb3Al(PO4)6,2.7708999999999993,-8.363194661470587,-2.913388890231092
mp-1222525,LiAlGeO4,3.8893999999999993,-7.009543414285712,-2.71391904690476
mp-1233060,MgAl(Bi3O5)4,0.0,-6.185718200882354,-1.7440806225000012
mp-1233723,MgAl(Bi3O5)4,0.0,-6.150879737647059,-1.709242159264706
mp-770509,LiAlVO4,1.6045,-7.708640437857142,-2.775747754047618
mp-1045776,AlV4(CuO4)3,0.0,-7.470336980500001,-1.882619371500001
mp-16947,LiAlGeO4,3.3465,-6.982992364523809,-2.687367997142856
mp-770365,LiAlVO4,1.5638,-7.704637183571428,-2.771744499761904
mp-1105277,AlHSO5,5.6906,-6.76372585125,-2.26136249359375
mp-1180605,NaAlS2O19,0.0,-5.06449077173913,-0.39600056136431705
mp-1182967,AlCu2AsO12,0.0,-5.5258480946875,-0.77649535953125
mp-1190676,AlH6ClO4,5.1309000000000005,-5.507330126666666,-1.694250019791666
mp-1192001,AlH6BrO4,4.837899999999999,-5.4501484775,-1.654701392708332
mp-1191939,AlH6IO4,4.2593,-5.379974898333334,-1.593938973541667
mp-1193153,NaAlCr2O10,0.0,-6.77849902642857,-1.501856055098521
mp-1196841,NaAlS2O19,0.0,-4.997877029782609,-0.329386819407796
mp-1199082,SrAl(OF2)2,0.079999999999999,-5.731063128125,-2.857396199375
mp-1203296,AlH12(NO5)3,3.5696,-5.933421326935484,-1.297233539677419
mp-15733,CaTaAlO5,3.900699999999999,-8.778821086875,-3.484082552166667
mp-557104,LiAlB2O5,5.5855000000000015,-7.850283712222222,-2.988829571851851
mp-561315,Cs3AlGe2O7,3.447199999999999,-6.2784506830769224,-2.405274430305039
mp-561398,NaAl(MoO4)2,3.6927,-7.863790615,-2.333600209281609
mp-770706,Li6MnAlO6,1.0451,-6.155369695714286,-2.294734384852217
mp-1209303,RbAl(SO4)2,5.4928,-6.7022352575,-2.320025501041666
mp-1182904,AlI2NO15,0.0,-4.933361350000001,-0.230661672105263
mp-1209251,RbAl(SeO4)2,3.0179,-6.034754004166666,-1.759618929348957
mp-1214883,AlS2NO8,0.0,-6.41801498,-1.4226599175
mp-1214825,AlSe2NO8,0.0,-5.735334107499999,-0.8470537266406241
mp-1214828,AlTl(SeO4)2,3.2568,-5.971184795833333,-1.58013821733507
mp-1214834,AlTl(SO4)2,4.9822,-6.633452894166666,-2.135331634027778