Material_ID,Formula,Band_Gap,Energy_per_Atom,Formation_Energy_per_Atom
mp-1182914,AlH14C4NOF4,0.043499999999999005,-5.163674724599999,-0.7983060768999991
mp-572874,AlH14C4NOF4,5.1156,-5.318591343,-0.953222695299999
mp-707443,Na7AlH2C4(O3F)4,4.805499999999999,-6.444929679999999,-2.315811090405172
mp-706670,AlCuH28S2ClO22,0.897699999999999,-5.481935736909091,-1.447574997090908
mp-735041,AlVP2CNO9,0.5951000000000001,-7.8412564483333345,-2.123988366119047
mp-1195533,LiAlC16Cl12(OF6)4,4.679,-5.493087260258621,-1.334123682385057
mp-776520,NaLiTiAl(PO4)3,2.574899999999999,-7.721518335526316,-2.957641276156555
mp-556641,Na2LiAlP2H2O9,5.1452,-6.710153457500001,-2.5636317382575102
mp-1229335,AlH16C2S2NO14,3.1825,-5.820898090694445,-1.309453068888889
mp-1229242,AlH16C2S2NO14,2.1005,-5.773864196388889,-1.262419174583333
mp-708992,AlH20C2S2NO14,5.6231,-5.6981957735,-1.298378609999999
mp-1196128,LiAlH8C16(O2F9)4,5.8174,-5.898564163714285,-1.7706091404761901
mp-2712549,Na3CaAlP2SO12,4.0061,-6.86651361,-2.6604547737961832
mp-2712560,Na3MgAlP2SO12,4.5554,-6.8406253165,-2.653322973546182
mp-2712618,NaAlGeP2SO12,2.7243,-7.169121098703704,-2.499389813046206
mp-2712615,NaAlSnP2SO12,3.191999999999999,-7.153980755925926,-2.518330359157316
mp-2712660,NaTiAlP2SO12,2.3985,-7.6303856602777795,-2.778850810083242
mp-2712765,NaHfAlP2SO12,4.9521,-7.8430141924074075,-2.876940619249909
mp-2712812,Na3AlZnP2SO12,4.0962,-6.651820088,-2.483054065296182
mp-2712804,NaZrAlP2SO12,4.2113,-7.719073106666667,-2.831304444620279
mp-2713155,Na2CaAlP(SO6)2,3.8617,-6.79298769754386,-2.503390750828146
mp-2713389,Na2MgAlP(SO6)2,4.5534,-6.76401473877193,-2.494161469161481
mp-2713471,Na2AlZnP(SO6)2,4.310700000000001,-6.565849470175439,-2.315508116617622
mp-1223878,K2AlFeB2P4(HO9)2,2.8099,-7.452854454666667,-2.607766284796826
mp-1195233,AlZnB5H20C5(NO2)5,4.5107,-6.389935715425532,-1.206532879113476
mp-1223590,KMgMn2AlGe3(O5F)2,1.9956,-7.175915976499999,-2.575523750655603
mp-1210199,NaCaAlPHO5F2,5.373399999999999,-6.784839140833333,-3.078918621856013
mp-1202327,AlCu4SbPb6S2(Cl2O13)2,0.18480000000000002,-5.5907881150000005,-1.252944067840909
mp-1195007,AlZnB5H16C4(N2O5)2,4.4996,-6.525700811890243,-1.343448999349593
mp-643446,Ca2AlH8S2Cl(O6F)2,5.364,-6.038826303214286,-2.17287631375
mp-1195904,AlZnB5H21C6(NO2)5,4.6496,-6.389215605714286,-1.159751009022109
mp-1244868,Al2O3,3.5103,-7.6779150236,-3.210908088599999
mp-1244874,Al2O3,3.626,-7.654094185,-3.187087249999999
mp-1244887,Al2O3,4.003399999999999,-7.675187789300001,-3.2081808543
mp-1244878,Al2O3,3.4995,-7.6886207742,-3.221613839199999
mp-1244892,Al2O3,3.6741,-7.6470464927,-3.180039557699999
mp-1244898,Al2O3,3.6405000000000003,-7.663849145,-3.19684221
mp-1244909,Al2O3,3.8764000000000003,-7.7220958222,-3.255088887199999
mp-1244918,Al2O3,3.4320999999999993,-7.6071889487,-3.140182013699999
mp-1244928,Al2O3,3.189599999999999,-7.6599108953,-3.1929039603
mp-1244930,Al2O3,3.8784,-7.7114607658,-3.244453830799999
mp-1244937,Al2O3,3.713799999999999,-7.679536580300001,-3.2125296453
mp-1244940,Al2O3,3.7617000000000003,-7.7043931799,-3.2373862449
mp-1244947,Al2O3,4.084,-7.7250083437,-3.258001408699999
mp-1244967,Al2O3,3.9432,-7.721948521300001,-3.2549415863
mp-1244954,Al2O3,3.5223999999999993,-7.6993844754000005,-3.2323775404
mp-1244970,Al2O3,3.3243,-7.6528563689,-3.185849433899999
mp-1244981,Al2O3,2.0628,-7.4591467548,-2.9921398197999993
mp-1244992,Al2O3,2.9973,-7.6869888787,-3.219981943699999
mp-1244994,Al2O3,3.7363,-7.654719796399999,-3.187712861399999
mp-1244982,Al2O3,3.8673,-7.6996426975,-3.232635762499999
mp-1245008,Al2O3,3.846299999999999,-7.6736938589,-3.206686923899999
mp-1244997,Al2O3,3.4465,-7.6226904228,-3.155683487799999
mp-1245024,Al2O3,3.9081,-7.680864143800001,-3.2138572088
mp-1245023,Al2O3,3.4326,-7.664925150600001,-3.1979182156
mp-1245037,Al2O3,3.5907,-7.7017427954,-3.2347358604
mp-1245043,Al2O3,3.235299999999999,-7.671736052800001,-3.2047291178
mp-1245036,Al2O3,3.417700000000001,-7.6624379091,-3.195430974099999
mp-1245052,Al2O3,3.727499999999999,-7.7017768356000005,-3.234769900599999
mp-1245056,Al2O3,3.8619,-7.7268811968,-3.259874261799999
mp-1245055,Al2O3,3.9786,-7.676632980100001,-3.2096260451
mp-1245063,Al2O3,3.859700000000001,-7.689603780700001,-3.2225968457
mp-1245065,Al2O3,3.1609,-7.6761492546,-3.209142319599999
mp-1245080,Al2O3,3.6482,-7.7165624479,-3.249555512899999
mp-1245081,Al2O3,3.4702,-7.6924346758,-3.225427740799999
mp-1245111,Al2O3,3.5496,-7.7328607481,-3.2658538131
mp-1245110,Al2O,0.0,-5.86643445574074,-1.720063567407406
mp-1245104,Al2O3,3.2726,-7.627685575,-3.16067864
mp-1245173,Al2O3,3.814899999999999,-7.7396072967,-3.272600361699999
mp-1245191,Al2O3,3.645299999999999,-7.7157683694,-3.248761434399999
mp-1245183,Al2O3,3.4985,-7.6933739283,-3.226366993299999
mp-1245196,Al2O3,3.2057,-7.661534608100001,-3.1945276731
mp-1245215,Al2O,0.0,-5.866496696111112,-1.720125807777777
mp-1245234,Al2O3,3.110699999999999,-7.6843906137,-3.217383678699999
mp-1245237,Al2O3,3.928,-7.6750981439,-3.208091208899999
mp-1245254,Al2O3,3.4308,-7.6551440356,-3.188137100599999
mp-1245251,Al2O3,3.264099999999999,-7.684821382,-3.217814446999999
mp-1245262,Al2O3,4.0581,-7.7333581039,-3.266351168899999
mp-1245279,Al2O3,3.4983999999999993,-7.6999864039,-3.232979468899999
mp-1245265,Al2O3,3.339299999999999,-7.6621942962,-3.1951873612
mp-1245323,Al2O3,1.705699999999999,-7.476701858,-3.009694922999999
mp-1247839,Al2O3,1.384599999999999,-7.352222749250001,-2.8852158142500013
mp-1247896,Al2O3,3.191899999999999,-7.698856413750001,-3.231849478750001
mp-1247880,Al2O3,0.005099999999999,-7.793823887999999,-3.326816953
mp-1247846,Al2O3,3.6167,-7.679089870999999,-3.212082935999999
mp-1359927,Al2O3,0.9567999999999991,-6.9542894314999995,-2.487282496499999
mp-684591,Al2O3,3.3421,-7.7681717302500015,-3.30116479525
mp-684677,Al2O3,3.976099999999999,-7.732398451500001,-3.2653915165000003
mp-684713,Al2O3,3.221899999999999,-7.690615151,-3.223608216
mp-684990,Al2O3,3.1085,-7.698715239666667,-3.2317083046666673
mp-685036,Al2O3,3.298499999999999,-7.782766648250001,-3.31575971325
mp-752826,Al2O3,4.1714,-7.799801477400001,-3.3327945424
mp-723985,Al2O3,0.049199999999999,-5.332559293,-0.8655523580000001
mp-2637304,Al2O3,1.4387,-7.110377892000001,-2.643370957000001
mp-782035,Al2O3,4.978199999999999,-7.803480010333334,-3.336473075333334
mp-1245211,Al2O3,3.779599999999999,-7.8444976027500015,-3.37749066775
mp-7048,Al2O3,4.4553,-7.876398425,-3.409391490000001
mp-754812,Al2O3,4.205500000000001,-7.808671951000001,-3.341665016000001
mp-759943,Al2O3,4.3139,-7.858422626125,-3.391415691124999
mp-755066,Al2O3,4.2469,-7.804629083,-3.337622148
mp-754531,Al2O3,4.369999999999999,-7.786283682500001,-3.319276747500002
mp-754624,Al2O3,5.6671,-7.818831817000001,-3.351824882000001
mp-1182923,Al2O3,4.5868,-7.797637266,-3.330630330999999
mp-32570,Al2O3,4.1416,-7.854033901500001,-3.387026966500001
mp-985587,Al2O3,4.8054000000000014,-7.683499710666667,-3.216492775666667
mp-755483,Al2O3,4.0029,-7.790479459000001,-3.323472524000001
mp-755175,Al2O3,5.4924,-7.811657714000001,-3.344650779
mp-1228448,Al2O3,2.286,-7.65073673,-3.183729795
mp-1143,Al2O3,5.853700000000001,-7.893557943,-3.426551008
mp-2352722,Al2O3,4.7728,-7.696309936666667,-3.229303001666667
mp-638765,Al2O3,0.682299999999999,-7.093593375,-2.62658644
mp-776475,Al2O3,5.5116,-7.858523498250001,-3.391516563250001
mp-1105018,Al2O3,0.2338,-7.022884566,-2.555877631
mp-8022,Al2O,0.0,-4.287905736666667,-0.14153484833333302
mp-2254,Al2O3,4.8274,-7.872732484250001,-3.405725549250001
mp-754401,Al2O3,4.2347,-7.798434086,-3.331427151
mp-1247899,Al2O3,3.5091,-7.7976324,-3.330625465
mp-1247914,Al2O3,3.9999000000000002,-7.800680143,-3.333673208000001
mp-1938,Al2O3,5.313199999999999,-7.800202029499999,-3.333195094499999
mp-776490,Al2O3,5.815900000000001,-7.8472103662500015,-3.38020343125
mp-642363,Al2O3,4.2487,-7.613108317,-3.146101382
mp-1247845,Al2O3,0.0,-6.799748552800001,-2.3327416178
mp-32591,Al2O3,3.199799999999999,-7.836460844125,-3.369453909125
mp-1238781,La4Al2O9,3.5749,-8.400447170666668,-3.615991895666668
mp-1262001,Al2Mo2O7,0.5063000000000001,-8.128131303181817,-2.326478674545453
mp-1266390,Al2W2O7,1.033399999999999,-8.548191815000001,-2.362451891818182
mp-531459,MgAl2O4,3.4445,-7.449772106632652,-3.319277007346937
mp-532510,Al2NiO4,0.0,-7.360138897551019,-2.636834274693876
mp-1285355,Al2NiO4,3.5985,-7.502982437142857,-2.779677814285715
mp-558636,CaAl2O4,4.9805,-7.620915007142855,-3.436829927142855
mp-1048148,Al2(CuO2)3,0.0,-6.253529786363637,-1.7556627227272732
mp-1106178,Al2VO7,0.0,-7.391425774,-2.2703472975
mp-1105677,Al2PO7,0.0,-7.1989520595,-2.444716837464285
mp-1214939,Al2(FeO3)3,0.0,-7.383199816785715,-1.852280935714286
mp-1262197,Al2Cr2O7,0.09250000000000001,-7.878192279999999,-2.293376494999999
mp-1248317,Al2Co2O7,0.5769000000000001,-7.031708152727274,-1.9050070495454552
mp-15397,Ti7Al2O15,0.0,-9.102084106666668,-3.3946253211805573
mp-530722,MgAl2O4,4.459600000000001,-7.492807803571429,-3.362312704285714
mp-531674,Al2FeO4,2.8188999999999993,-7.988779892551021,-2.881206051122449
mp-1183257,Al2Tc2O5,0.0,-7.683232434444444,-1.799650814999999
mp-1187886,Yb2Al2O5,2.1192,-16.124352943333335,-3.194568934444444
mp-1185757,Mg2Al2O5,1.296199999999999,-6.843530644444445,-2.899986565
mp-1400159,Al2(BiO3)3,0.0,-6.410885535714286,-1.8613924189285722
mp-861959,Eu2Al2O5,0.0,-9.135316207777779,-3.267851706111113
mp-1205208,Al2Cr4O19,0.13339999999999902,-6.9502122148000005,-1.3456281894
mp-1212916,Eu3Al2O7,0.0,-9.466710706666666,-3.384109503333332
mp-561337,Al2W5O16,0.0,-8.853699406086957,-2.268952497826087
mp-1096905,Ce4Al2O9,0.014199999999999002,-8.712192390166667,-3.6608190444999993
mp-1200490,Tb4Al2O9,4.0883,-8.523383871,-3.818433524444445
mp-1208108,Tm4Al2O9,4.5176,-8.528505347666668,-3.864984906000002
mp-1208969,Sm4Al2O9,4.1441,-8.48353492566667,-3.757058576000003
mp-1212327,Ho4Al2O9,3.965899999999999,-8.529543051500001,-3.8353084804999993
mp-1212993,Dy4Al2O9,4.005599999999999,-8.527035209833334,-3.82728168861111
mp-1214880,Al2Te4O11,2.7781000000000002,-6.437750631764707,-2.055871438333333
mp-14600,CaAl2O4,4.5488,-7.636954567142857,-3.452869487142857
mp-2963,CaAl2O4,4.5893999999999995,-7.638493039880951,-3.4544079598809523
mp-5409,Y4Al2O9,4.3738,-8.997594198833333,-3.793649751833334
mp-542093,Al2(WO4)3,4.5354,-8.71453113602941,-2.494467935441175
mp-559796,Al2(MoO4)3,3.7649,-8.250361459411764,-2.403088868235294
mp-560927,Y4Al2O9,4.5077,-8.994652225333333,-3.7907077783333323
mp-561084,Nd4Al2O9,4.1884,-8.455832072166666,-3.7161393765
mp-582606,Eu4Al2O9,0.057300000000000004,-9.474739615,-3.263056390666669
mp-778430,K8Al2O7,2.4561,-5.056669277647058,-2.046208308411764
mp-780409,La4Al2O9,4.382,-8.575464926,-3.7910096510000013
mp-780406,Lu4Al2O9,4.1431000000000004,-8.5488368055,-3.874866770944445
mp-780420,Lu4Al2O9,4.5306,-8.552671011833333,-3.878700977277778
mp-781707,La4Al2O9,4.484199999999999,-8.575492935333331,-3.7910376603333322
mp-4417,Al2(SO4)3,6.0272,-6.998420422941177,-2.334787339264705
mp-756970,Al2(SeO4)3,3.120199999999999,-6.3111017852941185,-1.760841893943015
mp-773505,Al2CrO5,0.036599999999999,-8.11172801875,-2.876227499375
mp-9751,Al2Ge2O7,3.409799999999999,-7.372634091363636,-2.702367327272727
mp-530146,MgAl2O4,4.122199999999999,-7.487288470357138,-3.356793371071424
mp-530567,Al2FeO4,0.5154000000000001,-7.977692890952381,-2.870119049523809
mp-34144,MgAl2O4,4.5921,-7.490509630714285,-3.360014531428571
mp-33335,MgAl2O4,4.254,-7.473468732857143,-3.342973633571429
mp-34978,Al2FeO4,0.0,-7.944689859285714,-2.837116017857142
mp-34728,Al2CuO4,0.0,-7.140773000952381,-2.6576012366666673
mp-532094,Al2CoO4,0.0,-7.801700150714285,-2.885069807857142
mp-674336,Al2CoO4,2.274700000000001,-7.765027005952381,-2.848396663095238
mp-33302,MgAl2O4,4.277299999999999,-7.479881265357142,-3.349386166071428
mp-34330,MgAl2O4,4.497800000000001,-7.449958788571428,-3.319463689285714
mp-530381,Al2CoO4,0.0307,-7.7502989925,-2.833668649642857
mp-530284,Al2CoO4,0.011800000000000001,-7.723787472321429,-2.807157129464286
mp-530164,MgAl2O4,4.5747,-7.493125850357137,-3.362630751071422
mp-531283,Al2CuO4,0.0,-7.137753747321428,-2.654581983035714
mp-531793,MgAl2O4,4.0297,-7.4672650480357134,-3.336769948749999
mp-530395,Al2FeO4,0.0,-7.529132608749999,-2.421558767321428
mp-530513,Al2FeO4,0.043799999999999006,-7.849215240714286,-2.7416413992857143
mp-531530,MgAl2O4,4.2033,-7.484013939285713,-3.353518839999999
mp-532212,Al2CoO4,0.0,-7.7149664504285695,-2.7983361075714273
mp-1203225,Al2(SeO4)3,0.0,-5.899533178823529,-1.349273287472426
mp-1295388,Al2NiO4,3.637099999999999,-7.476252880714286,-2.752948257857144
mp-2713752,Al2(SO4)3,5.6638,-6.992098382745098,-2.328465299068627
mp-4202,BaAl2O4,4.1027,-7.619861021071428,-3.448150932499999
mp-5492,SrAl2O4,4.0563,-7.592224508809524,-3.45287825595238
mp-559390,CaAl2O4,4.1905,-7.630465934285714,-3.446380854285714
mp-1222051,MgAl2O4,3.2953,-7.358623893333334,-3.228128794047619
mp-1215043,CaAl2O12,0.22330000000000003,-5.5290518302222225,-0.9375662568888891
mp-1215064,CaAl2O12,0.21249999999999902,-5.452935823333333,-0.8614502500000001
mp-36775,SrAl2O4,3.9624,-7.586345705238095,-3.446999452380952
mp-560318,Al2(WO4)3,4.619,-8.713451103235295,-2.4933879026470582
mp-3828,BaAl2O4,3.9448,-7.618542165000001,-3.446832076428572
mp-1228951,Al2CO,1.759599999999999,-6.7715956125000005,-1.354651073124999
mp-1342803,Al2W2O7,1.8038999999999992,-8.413613929545456,-2.227874006363636
mp-1378195,Al2Mo2O7,0.6497,-8.015817295909091,-2.214164667272727
mp-1374068,Al2(WO4)3,1.7529,-8.622131229999999,-2.402068029411763
mp-725936,BaAl2O8,0.0,-6.077403175909091,-1.6234200268181822
mp-12147,Ca3Al2O6,4.0091,-7.325019617424243,-3.39813622378788
mp-3393,Sr3Al2O6,4.2046,-7.183693953219698,-3.342221047765152
mp-1200701,Ca3Al2O12,0.42300000000000004,-6.080300080882353,-1.793036353823529
mp-640266,Ca3Al2O6,0.0,-6.788008416363637,-2.861125022727273
mp-1211680,K4Al2O,0.0,-2.394121123571428,0.029391955857143003
mp-1255912,Mn2Al2O7,1.585799999999999,-7.7504380440909095,-2.254900836896551
mp-1261949,Al2V2O7,0.0,-7.968611280000001,-2.487275749545455
mp-1252698,Al2Sb2O7,0.000299999999999,-6.474915724090908,-1.894471980909089
mp-1260244,Al2Sn2O7,1.351599999999999,-6.719597825909091,-2.160868516363635
mp-1262076,Al2Bi2O7,0.0,-6.267461750454545,-1.7304665399999992
mp-1375270,Al2Cr2O7,0.0,-7.805087184090909,-2.220271399090909
mp-1248873,Al2Ni2O7,1.0073,-6.607013895909091,-1.726363709090908
mp-1258020,Al2Fe2O7,0.0,-7.287038699090909,-1.917318597727272
mp-1261252,Ti2Al2O7,0.6019999999999991,-8.210258548181818,-2.9449983001515143
mp-1376528,Al2Co2O7,0.0,-6.970668785454546,-1.8439676822727271
mp-27719,Al2CuO4,0.0,-7.137118105714285,-2.653946341428571
mp-30084,Al2FeO4,0.0,-8.011136344285713,-2.9035625028571412
mp-2908,Al2ZnO4,3.845999999999999,-7.098606812857144,-3.021072628571429
mp-3536,MgAl2O4,5.1095,-7.500496476428567,-3.370001377142852
mp-36447,Al2CoO4,3.0024,-7.779964325000001,-2.863333982142858
mp-36866,Al2CdO4,2.676,-6.85505898,-2.820343855714285
mp-688785,Al2NiO4,3.3947000000000003,-7.502410347857143,-2.779105725000001
mp-755882,MnAl2O4,2.6578,-8.25418014642857,-3.047750007561575
mp-756317,Al2HgO4,1.346099999999999,-6.484171331428571,-2.5423616575
mp-1182533,Ca3Al2O12,0.8159000000000001,-6.08005786485294,-1.7927941377941172
mp-1204798,Ba3Al2O12,0.8126000000000001,-6.0497312725,-1.777754299558823
mp-1182305,BaAl2O6,0.0,-6.578654510555555,-2.234444218333333
mp-1196014,BaAl2O6,0.0,-6.672412312222223,-2.32820202
mp-1204519,Al2PO8,0.004399999999999,-6.817658589090908,-2.045811932240259
mp-1265553,Al2(FeO3)3,0.0,-7.481877432946429,-1.9509585518750001
mp-772624,Al2CO,2.662799999999999,-6.840047692500001,-1.423103153125001
mp-1101043,TiAl2O5,3.1831,-8.44580812875,-3.430002041041667
mp-1222073,MgAl2O4,2.7123,-6.872358162857142,-2.741863063571428
mp-1019732,EuAl2O4,0.09919999999999901,-8.780427923214287,-3.413126838214287
mp-1182999,Al2(WO4)3,4.5346,-8.712520647647057,-2.492457447058822
mp-1201085,Al2P3O13,0.0159,-6.852490153333333,-1.9602087477182542
mp-1229334,Al2Se3O28,0.0,-4.96009206409091,-0.21700739036458302
mp-1329157,Al2(CuO2)3,0.0,-6.255700307727273,-1.75783324409091
mp-3094,SrAl2O4,4.1419999999999995,-7.5981812575,-3.458835004642857
mp-21892,Al2PbO4,3.9425,-7.321732554285729,-2.893783590000014
mp-725525,K2Al2O7,0.3795,-5.681323930454545,-1.6459040994999992
mp-1190359,BaAl2O6,0.0,-6.579190452222222,-2.234980159999999
mp-725468,BaAl2O6,0.0,-6.347481252222222,-2.003270959999999
mp-10444,Ca2Al2O5,3.5662000000000003,-7.43838321,-3.411476938333332
mp-1182191,BaAl2O6,0.1497,-6.579281435555555,-2.2350711433333332
mp-1218520,SrAl2O4,3.901899999999999,-7.583846697857142,-3.444500444999999
mp-1228007,BaAl2O4,3.928899999999999,-7.615619020714285,-3.443908932142856
mp-19521,Al2(MoO4)3,3.7134,-8.251258849852942,-2.403986258676472
mp-19516,Al2(WO4)3,4.6158,-8.714620717941173,-2.494557517352938
mp-780398,Al2(SeO4)3,2.6467,-6.285152486617647,-1.734892595266544
mp-1251718,BaAl2O6,0.7308,-6.675979909444445,-2.331769617222222
mp-867936,BaAl2O6,0.0,-6.462296538888889,-2.118086246666666
mp-1197018,Al2GeO6,0.0,-7.10181426,-2.457153643888889
mp-12441,CaAl2O4,4.8499,-7.579868482142857,-3.395783402142856
mp-3081,BeAl2O4,6.117700000000001,-7.7846909032142815,-3.352918253928567
mp-5857,MgAl2O4,4.9766,-7.401597324999999,-3.271102225714285
mp-2647075,HfAl2O5,4.9993,-8.8575351075,-3.584016893125
mp-4930,TiAl2O5,2.9434,-8.457293088750001,-3.441487001041667
mp-556870,MgAl2O4,4.9384,-7.392587582142857,-3.262092482857142
mp-754713,Al2CrO5,0.327399999999999,-8.1069378421875,-2.8714373228125
mp-560978,Ba4Al2O7,3.6788,-7.017562293846153,-3.1865793357692302
mp-1048803,Al2NiO4,0.0,-7.503846640714286,-2.780542017857144
mp-34210,Al2ZnO4,3.030299999999999,-6.971310168571428,-2.893775984285713
mp-38307,MgAl2O4,4.702399999999999,-7.460920074285709,-3.3304249749999952
mp-36465,Al2FeO4,2.6289,-7.946965544285715,-2.839391702857143
mp-37614,Al2NiO4,3.205599999999999,-7.526046116428573,-2.802741493571429
mp-752645,Al2CuO4,0.0,-7.104299943571428,-2.621128179285714
mp-34234,Al2NiO4,3.079499999999999,-7.520321826428572,-2.797017203571428
mp-34782,Al2FeO4,2.5346,-7.9965294388095245,-2.888955597380952
mp-37621,Al2CoO4,2.4719,-7.76370097142857,-2.8470706285714282
mp-530137,Al2NiO4,3.042099999999999,-7.517162169999999,-2.793857547142856
mp-530459,Al2NiO4,3.075000000000001,-7.515779417571429,-2.792474794714287
mp-530748,MgAl2O4,4.383999999999999,-7.473377516428571,-3.342882417142857
mp-530184,Al2NiO4,2.923400000000001,-7.513569650714286,-2.790265027857143
mp-531340,MgAl2O4,2.8486000000000002,-7.4690182904081635,-3.338523191122449
mp-530977,Al2CuO4,0.0,-7.142617425535714,-2.65944566125
mp-531840,MgAl2O4,3.812000000000001,-7.491346577551015,-3.3608514782653
mp-532317,Al2NiO4,3.2249,-7.522194669571429,-2.798890046714286
mp-532426,Al2CuO4,0.0,-7.127201082571429,-2.644029318285715
mp-531917,Al2NiO4,3.0811,-7.521452224464285,-2.798147601607143
mp-1183001,Al2(SeO4)3,0.356199999999999,-5.737862473235294,-1.187602581884191
mp-1248282,Al2(BiO3)3,0.0,-6.588104700000001,-2.038611583214287
mp-1280463,Al2NiO4,3.5218,-7.502181145714286,-2.778876522857143
mp-1227858,Ca6Al2Fe4O15,0.7553000000000001,-7.477383576666667,-2.750559470925926
mp-1229078,Al2Fe(PO4)3,3.0241,-7.941005015555556,-2.853053598551587
mp-1229137,Al2Fe3(BiO4)3,1.781699999999999,-7.196370826000001,-1.999028312
mp-1235533,LiAl2V4O8,0.943099999999999,-8.142488789333333,-2.4545296662222222
mp-1247587,Ca16Mn14Al2O43,0.0879,-7.683379968466667,-2.60856280788046
mp-1247609,Ca16Mn14Al2O41,0.0442,-7.693151224383562,-2.614858552685403
mp-1247619,Ca8Mn6Al2O23,0.24419999999999903,-7.608610843717949,-2.677555829168877
mp-1247683,Ca8Mn6Al2O21,0.1477,-7.643773873986487,-2.713632696759087
mp-1247668,Ca16Mn14Al2O45,0.0,-7.664427203766235,-2.592905008260189
mp-1247697,Ca16Mn14Al2O47,0.2641,-7.648652078164557,-2.580258014063726
mp-1372169,Al2Fe3(BiO4)3,0.0,-6.255267322,-1.057924808
mp-2217661,MgAl2(CoO3)2,2.053000000000001,-7.218336601818181,-2.393225588636363