Material_ID,Formula,Band_Gap,Energy_per_Atom,Formation_Energy_per_Atom
mp-1648306,Li2FeP2O7,4.4589,-7.354193418333334,-2.541314999246031
mp-16933,LiFe(WO4)2,1.7127,-8.302002949166667,-1.9787619011111102
mp-19028,Na3Fe(PO4)2,1.6539000000000001,-6.975658117857143,-2.482099643815974
mp-22173,LiFe(GeO3)2,1.7288000000000001,-6.995982033,-2.064705451333333
mp-22614,NaFe(GeO3)2,1.5846,-6.920233539500001,-2.045677166637932
mp-26025,Li2FeP2O7,4.1571,-7.382216295625,-2.569337876537698
mp-26269,LiFe(PO3)4,2.3543,-7.607918569722222,-2.529231334272486
mp-25961,LiFe(PO3)4,2.373399999999999,-7.583661728611111,-2.504974493161375
mp-25963,LiFe(PO3)4,2.5723000000000003,-7.591363597777778,-2.512676362328042
mp-26789,Li2FeP2O7,4.103,-7.352437422083334,-2.539559002996032
mp-31817,Li2Fe(PO3)4,3.944999999999999,-7.479682949473685,-2.56782541764411
mp-504122,Li2FeP2O7,4.287199999999999,-7.349208113124999,-2.536329694037697
mp-560123,FeBi3(MoO6)2,1.233299999999999,-7.469992883611111,-1.847384193611112
mp-643564,FeH2SO5,3.1761,-6.586700673333333,-1.682420819999999
mp-698316,FeH4(CO3)2,3.324599999999999,-6.855284995576923,-1.455609304807693
mp-705011,LiFeP2O7,0.9655999999999991,-7.425773263863636,-2.348898885465367
mp-727423,K2FeOF5,0.9737000000000001,-5.094428227777778,-2.28887450161111
mp-752770,Li2FeP2O7,3.666499999999999,-7.3541138225000005,-2.541235403412697
mp-754148,Li2V2FeO6,1.035299999999999,-7.6837586263636375,-2.216172706969698
mp-754952,Li2CrFeO4,2.1498,-7.361257968125,-2.144663163958333
mp-755983,LiV2FeO6,0.9647999999999991,-8.016290643500001,-2.192838418833334
mp-757456,Li4Fe(PO3)6,4.371,-7.309544666551725,-2.562584255558292
mp-757182,LiFePO4,3.5225,-7.473033431071428,-2.389281770782312
mp-758208,LiFeP2O7,0.7104,-7.536775313863637,-2.459900935465367
mp-758777,LiFe(PO3)4,2.6515999999999993,-7.547350626666666,-2.4686633912169302
mp-758529,LiFe(PO3)4,1.716,-7.552865518611112,-2.4741782831613772
mp-758919,LiFePO5,0.0,-7.2318316015625,-2.165053773184524
mp-772427,Li3Fe(PO4)2,1.9462000000000002,-7.161273125535714,-2.546171346913265
mp-775979,Li2FeO2F,2.1313,-6.273246620833333,-2.256973066111111
mp-774231,LiFeB2O5,2.8042,-7.844262521666668,-2.457870005740741
mp-774685,Li3Mn5FeO12,0.2721,-7.710766275,-2.025890164031199
mp-776471,Li2FeO2F,2.0105,-6.267033677083333,-2.2507601223611102
mp-780532,Li2FeO2F,2.303,-6.280041102083333,-2.26376754736111
mp-849274,LiFeOF2,2.469499999999999,-6.349689995,-2.518768028666667
mp-1208026,TlFe(SeO4)2,2.3073,-6.030514559999999,-1.245764199835069
mp-1208045,TlFe(SO4)2,2.070999999999999,-6.683320785833334,-1.7914957440277781
mp-1208805,Sr4FeRh2O9,0.0,-6.96958916375,-2.313339266562499
mp-1209220,RbFe(SO4)2,2.1651,-6.7340636625,-1.958150124375
mp-1212677,FeSe2NO8,0.0,-5.790547849166667,-0.508563686640625
mp-1212712,FeS2NO8,0.0,-6.442149094166666,-1.053090249999999
mp-1213156,CsFe(SeO4)2,2.2281,-6.093102065,-1.430309583695223
mp-1214741,Ba3FeGe5O14,1.597,-7.096087508695652,-2.4607162315217392
mp-22038,RbFe(SeO4)2,2.2159,-6.095370998958333,-1.426532142473957
mp-1227494,Ca6Fe(CoO4)3,0.20650000000000002,-7.058241748863636,-2.454632534772726
mp-554569,Ti4Fe(PO4)6,2.3278,-8.422193779571428,-2.9565967924625842
mp-775306,Li2Ti3FeO8,1.9638,-8.397464304464284,-3.000462087797619
mp-1228536,Ba2TiFeO6,0.0,-7.806052108666667,-2.816929195000001
mp-2225867,MgFeHO2,0.0,-6.090267104,-1.411951169249999
mp-2225281,MgFeHO2,0.0,-6.13101723,-1.45270129525
mp-2224449,MgFeHO2,1.564699999999999,-5.9615342600000005,-1.28321832525
mp-26611,LiFePO4,3.5237,-7.50794673047619,-2.424195070187074
mp-765651,LiFePO4,3.434299999999999,-7.476483183809524,-2.392731523520408
mp-1177938,Li2Mn3FeO8,0.0,-7.606093613571429,-1.937693552175698
mp-1222267,LuZnFeO4,1.1464,-7.415753002857143,-2.55242496095238
mp-1222330,LuFeCuO4,0.0,-7.519399811428571,-2.250434189523809
mp-1222216,Mg3Cr8FeO16,0.0,-8.575804279285714,-2.513190454464286
mp-1224890,FeSb3Pb4O13,1.2530000000000001,-6.557328607738095,-1.793942594642857
mp-1225495,ErMnFeO4,0.0,-8.50462093,-2.505821025418718
mp-1235342,LiFePbO3,1.2713,-6.3310894,-1.5085103730555551
mp-2222917,MgFeCuO2,0.0,-6.11213934,-1.293015358999999
mp-2225320,MgFeCuO2,0.0,-6.07182386,-1.2526998790000001
mp-2227022,MgFeAuO2,0.0,-6.017743233999999,-1.3636841869999992
mp-2215808,MgFePbO3,1.101299999999999,-6.343868666666666,-1.567698448333332
mp-2226681,MgFeAuO2,0.0,-6.012045244,-1.357986197
mp-2210754,MgFeAgO2,0.0,-5.94202874,-1.374158557333333
mp-2226544,LaMgFeO3,0.0,-7.12741968,-2.147356122500001
mp-2210678,NaMgFeO2,0.0,-5.828896007999999,-1.561269205275861
mp-2226109,EuMgFeO3,0.0,-7.9326733,-2.060592274166668
mp-2233791,MgMn3FeO8,1.1474,-7.448069723846154,-1.511898559137931
mp-755521,Li2Ti3FeO8,0.0,-8.371683534285713,-2.974681317619048
mp-756179,Li2Cr3FeO8,0.0,-7.872429362857142,-2.098808120476189
mp-773045,Li2V3FeO8,0.0,-7.9517991850000005,-2.300136814047619
mp-775721,Li2FeCo3O8,0.0,-6.700920997142857,-1.467220629761905
mp-780876,Li6Fe(OF)3,3.031799999999999,-5.567920235192308,-2.451843423653846
mp-554104,Ca9Fe(PO4)7,1.7533999999999992,-7.677364684555555,-3.166883730166666
mp-1297758,LaFeTeO6,2.478199999999999,-7.491150279166667,-2.35369469712963
mp-1022733,Ba2NbFeO6,1.690799999999999,-8.087115900666667,-2.877411684666667
mp-1104989,CsFe(MoO4)2,2.3737,-7.912516603333334,-2.024767683304598
mp-19362,KFe(MoO4)2,2.4118,-7.914534282083321,-2.008169349354155
mp-18868,RbFe(MoO4)2,2.3779,-7.908919881666667,-2.015124586458334
mp-754758,Li2FeO2F,1.8490000000000002,-6.365041174166667,-2.348767619444444
mp-554148,KFe(MoO4)2,2.3116,-7.9138786095833344,-2.007513676854168
mp-1215741,Zn2Cr3FeO8,0.0,-7.825966432857142,-2.145085084285714
mp-1216360,VFe(CuO2)2,0.0,-7.21829898125,-1.5252759012500001
mp-1217235,Ti4FeBi3O14,1.272599999999999,-8.098808465681818,-2.599101816742424
mp-1222680,Li5Fe(Co2O5)2,0.0,-6.427686020999999,-1.626290397333333
mp-1222018,Mn2Cr3FeO8,1.7368000000000001,-9.022415877857142,-2.212638574704433
mp-1222775,Li2FeCoO4,0.000399999999999,-6.6066756675,-1.7050347070833332
mp-1276755,Sr2FeOsO6,0.0,-7.602338882,-2.325337796999999
mp-2218630,MgMn3FeO8,1.355,-7.770509469999999,-1.834338305291777
mp-619611,Ca2FeWO6,2.5738000000000003,-7.9982562900000005,-2.485544567
mp-752999,LiFeCo3O8,0.3771,-6.843419109230769,-1.353966626410256
mp-703253,RbFeSe2O7,0.0,-6.159856969090909,-1.516392853380681
mp-753893,Li3FeCo3O8,0.0,-6.581682926,-1.569634392
mp-753971,Li5Fe(Ni2O5)2,0.0,-6.105886959,-1.5751473433333332
mp-754595,Li2Ti3FeO8,0.0,-8.331416531428571,-2.934414314761905
mp-756498,Li3FeNi3O8,0.0,-6.193741751333333,-1.452349225333333
mp-756375,Li4FeCu3O8,0.0,-5.766304853749999,-1.517116058333333
mp-756321,Li2V3FeO8,0.0,-7.956709392142857,-2.305047021190476
mp-755957,Li3V3FeO8,0.6469,-7.6966650166666675,-2.294518612666668
mp-756625,Li4Mn3FeO8,0.14599999999999902,-7.235729135,-2.037263722945402
mp-759199,Li4Cr3FeO8,2.149299999999999,-7.565972788124999,-2.275438842708332
mp-756879,Li2Mn3FeO8,0.0,-7.655256286428572,-1.9868562250328412
mp-763916,Li5Cr3FeO8,0.0,-7.192224564117646,-2.10060891745098
mp-771350,Li3FeCu3O8,0.0,-5.740468612,-1.335262088
mp-765603,Li4FeCo3O8,0.081599999999999,-6.467036429999999,-1.648933250208332
mp-765701,Li4V3FeO8,1.5136999999999992,-7.51490343875,-2.331083505833334
mp-768413,Li2FeNi3O8,0.0,-6.255768505714286,-1.312056718333333
mp-850200,Li3Cr3FeO8,0.0,-7.695740084666666,-2.179765400666666
mp-863330,Li3Cr3FeO8,0.0,-7.680354918,-2.1643802340000002
mp-863333,Li3Mn3FeO8,0.0,-7.305485215999999,-1.887716967586207
mp-861570,Li2FeCo3O8,0.0,-6.796095394642856,-1.5623950272619052
mp-774415,Li2Cr3FeO8,0.0,-7.878220233571428,-2.104598991190475
mp-1101225,V2Fe(PO4)3,0.0,-8.228717372777778,-2.547618151329366
mp-18843,Ca3FeRhO6,0.8859,-7.146008425,-2.460654356818181
mp-604694,FeP3(HO2)6,2.7053000000000003,-6.714225450681818,-1.965908519837662
mp-778242,Ti2Fe(PO4)3,0.1711,-8.403455838888888,-2.854402623366402
mp-776759,Mn2Fe(PO4)3,0.0,-8.00469732638889,-2.31491930248837
mp-758598,LiFePO4,3.3005,-7.483988574166667,-2.400236913877551
mp-758000,LiFePO4,0.0,-7.389097996369047,-2.305346336079931
mp-1191504,FeS2NO8,0.0,-6.470170536249999,-1.081111692083332
mp-776549,Li8FeO5F,2.9955,-5.526802433666668,-2.1671316641111122
mp-756664,LiFeBO3,2.903799999999999,-7.643461558888889,-2.326425081805556
mp-756046,LiFeBO3,2.6589,-7.601540865277777,-2.284504388194444
mp-1213402,FeBP2O11,0.0,-6.957721288888889,-1.597192549785714
mp-1221858,MnNb4FeO12,2.5194,-9.328027795277778,-2.8050950884961683
mp-1575286,Li2FeP2O7,3.9467,-7.312189649583334,-2.499311230496031
mp-757754,LiFePO4,3.1045,-7.496849817380952,-2.413098157091836
mp-772146,LiFePO4,3.0458,-7.494654233214287,-2.41090257292517
mp-1078415,CaFeSO,0.0,-6.82496152125,-1.934476105625
mp-1181372,FeBr(NO)3,0.455499999999999,-6.467925049375,-0.222214550000001
mp-1190394,Nd4FeS6O,2.2232,-7.029843871666666,-2.253116425833332
mp-1228400,Ba3FeRu2O9,0.0,-7.380923997666668,-2.227097320666667
mp-17271,Sm4FeSe6O,1.8356,-6.539063508333334,-2.100080539921876
mp-556875,La4FeSe6O,0.0,-6.74511452,-2.233657894921876
mp-558146,FeN3ClO3,0.8434,-6.5513703475,-0.27921031500000104
mp-579188,Ce4FeSe6O,0.0795,-6.887951897916667,-2.042847684505208
mp-757856,Li2FeCo3O8,0.0,-6.7147440775,-1.4810437101190481
mp-770175,Li2Mn3FeO8,0.0,-7.631227375,-1.962827313604269
mp-761063,Li3FeNi3O8,0.0,-6.172466088666667,-1.431073562666666
mp-759910,Li3Mn3FeO8,0.0,-7.331261233666667,-1.9134929852528741
mp-772095,Li2FeNi3O8,0.0,-6.205388995,-1.261677207619047
mp-774668,Li2V3FeO8,1.033399999999999,-7.950827882142858,-2.299165511190476
mp-775874,Li2Ti3FeO8,1.3676,-8.37125951,-2.9742572933333333
mp-1047268,MgFeAsO5,2.0052,-6.9501857140625,-2.01138336625
mp-1197024,FeBi(SeO3)3,2.6249000000000002,-6.2506830478571445,-1.437865976573661
mp-1325009,CaFeAsO5,1.746099999999999,-7.189950444375,-2.2042568634375
mp-1355282,CaMnFeO5,0.0,-7.4424652596875,-1.895285083803878
mp-1661570,LiFePO4,3.860499999999999,-7.534894260714286,-2.451142600425169
mp-26126,LiFe(PO3)4,1.8014000000000001,-7.58795204111111,-2.509264805661375
mp-504179,LiFe(PO3)3,4.1851,-7.63361447875,-2.550970643197279
mp-758184,LiFe(PO3)3,4.1848,-7.6313837283928585,-2.5487398928401372
mp-764111,NaFe(PO3)3,4.1472,-7.562348787321428,-2.520219386629133
mp-765590,LiFePO4,3.848499999999999,-7.487831914642856,-2.40408025435374
mp-758723,LiFe(PO3)3,4.206300000000001,-7.5713086444642865,-2.488664808911564
mp-1022808,Ba2NbFeO6,1.349799999999999,-8.082959452,-2.8732552360000003
mp-1096783,Ba2VFeO6,0.6837000000000001,-7.6767721600000005,-2.568807841
mp-1222463,LuZn4FeO7,0.7772000000000001,-6.240724658846154,-2.189462340512821
mp-1214638,Ba3FeRu2O9,0.0,-7.396520526999999,-2.242693849999999
mp-851087,LiFeOF2,0.0,-6.328106920000001,-2.4971849536666673
mp-1177863,Li2Ti3FeO8,0.005099999999999,-8.342268920535714,-2.945266703869048
mp-765588,LiFePO4,3.5669,-7.4725244221428575,-2.388772761853741
mp-1042037,MgFeP2O7,4.2706,-7.7316816025,-2.680121119707792
mp-1042054,ZnFeP2O7,3.725799999999999,-7.405400002045454,-2.387541919707791
mp-1042021,CaFeP2O7,4.197799999999999,-7.873325022727272,-2.7876618249350633
mp-1042339,YFe(WO4)2,1.792699999999999,-9.175244875833334,-2.468656441666667
mp-1046490,SrFe(PO4)2,0.0,-7.594687530833333,-2.546597164940475
mp-1095492,Ca2FeClO8,0.0,-5.3328893925,-0.8401017416666671
mp-1104261,LiFePO4,3.2893,-7.460702974999999,-2.376951314710883
mp-1104492,FeSO4F,2.0927,-6.877543216428571,-1.975532191785714
mp-1176841,Li8Fe(O2F)2,3.4413,-5.379172340333333,-2.221775479444444
mp-1177852,Li3Mn3FeO8,0.270099999999999,-7.403292235333334,-1.9855239869195411
mp-1181467,FeS6(NO2)9,0.19910000000000003,-5.485762590882353,0.32035436235294
mp-1182728,FeP2CO8,0.20520000000000002,-7.189222404166666,-1.513112254732142
mp-1188376,Ca2Fe(PO6)2,0.0,-6.842459268235294,-1.978476910546218
mp-1191971,FeRe2(H2O3)4,2.683799999999999,-6.8759892573913035,-1.662810422826087
mp-1191609,V2FeAgO7,1.340799999999999,-7.754426748181819,-1.9256541969696972
mp-1194642,FeH4C3O8,1.0787,-7.02646151203125,-1.443938294375
mp-1198118,FeH10N3O14,1.8689,-6.005522215,-1.123094611339286
mp-1202429,FeH7(CO2)4,1.4882,-6.591068979000001,-1.154342164437501
mp-1205163,FeP2CO8,0.24470000000000003,-6.838045615625,-1.161935466190476
mp-1208946,Sr2FeIrO6,0.0,-7.259953372999995,-2.221845612999995
mp-1207546,Zn3FeP3O14,0.10890000000000001,-6.592454191666667,-1.936876730425169
mp-1210849,Li2Fe(WO4)2,3.349999999999999,-8.182824657692308,-2.199146546666667
mp-1213176,FeH7SO8,2.2921,-5.949745482352941,-1.481614077132352
mp-1216668,V3Zn2FeO11,2.145,-7.578422107352942,-2.127316360588236
mp-1222630,Li3FeIrO5,0.0,-6.5813670625,-1.803864161
mp-1223050,La4Ga3FeO12,2.529000000000001,-7.868663503125001,-3.034970015250001
mp-1223100,La4Fe(NiO4)3,0.0,-7.804716673749999,-2.55821708725
mp-1223166,La4Fe(NiO4)3,0.0,-7.810997025499999,-2.564497439
mp-1223288,La4Ga3FeO12,2.785800000000001,-7.862250756250001,-3.028557268375001
mp-1223109,La4Fe(CoO4)3,0.0,-8.097745448,-2.6482538554999993
mp-1224293,Ho2FeMoO7,0.635,-8.473409387727273,-2.7327950890909083
mp-1272475,CaLa2FeO6,0.5577000000000001,-8.012612681250001,-3.00907254825
mp-1272760,Sr2FeWO6,2.3975,-8.110336606,-2.660259241
mp-1273431,Li4Fe(PO4)2,4.5179,-7.008555783166667,-2.5738659320079362
mp-1272866,La2MgFeO6,0.5422,-7.967572006499999,-3.00154486
mp-1273234,CaLa2FeO6,0.479199999999999,-8.006384024,-3.002843891
mp-1276311,CaLa2FeO6,0.5023999999999991,-8.01020145925,-3.006661326249999
mp-1278154,Sr2FeWO6,2.390799999999999,-8.109627213,-2.659549848
mp-1282595,Mn2FeReO6,0.0,-8.775571316,-1.882578112836208
mp-1277255,CaFe(GeO3)2,2.132199999999999,-7.28244950575,-2.34150522275
mp-1278033,Sr2FeReO6,0.0,-7.91898920475,-2.519913442
mp-1299471,Li2FeCo3O8,0.0,-6.753270727142857,-1.519570359761905
mp-1343599,CaFeP2O7,3.3507,-7.884581972954546,-2.798918775162337
mp-1367721,Li2FeP2O7,0.0,-5.020884330833333,-0.20800591174603
mp-1368593,MgFeP2O7,4.3052,-7.709807232272727,-2.658246749480519
mp-1376100,ZnFeP2O7,3.422,-7.399211563636363,-2.3813534812987
mp-1372870,LiFePO4,0.0,-6.328060029642857,-1.2443083693537411
mp-1406778,Li4FeNi3O8,0.0,-3.886796861875,0.677566310416666
mp-1543276,KFe(SO4)2,1.724,-6.627935845,-1.839452669354166
mp-1645036,FeTe(PO4)2,3.3436999999999992,-7.373567449375,-2.204570599871032
mp-1644021,Li2FeP2O7,4.3546,-7.354520220624999,-2.541641801537697
mp-1650315,Li4Fe(BO3)2,3.9646999999999992,-6.986425406346154,-2.43625138724359
mp-1651775,La2VFeO6,0.10830000000000001,-8.7561725835,-3.044801831500001
mp-1662030,LiFePO4,3.328999999999999,-7.522607563928571,-2.438855903639454
mp-19180,VFeMoO7,2.0434,-8.3250358,-2.0215053575
mp-2228489,MgMn4FeO8,0.0,-8.13274654857143,-1.966157946194581
mp-24102,VFeH2O5,1.8753000000000002,-7.258816274444445,-1.805031254166667
mp-25382,FePO4F,0.0,-7.271113449285714,-2.1866575735204092
mp-26003,LiFe(PO3)3,3.948699999999999,-7.636628639642857,-2.553984804090135
mp-26563,LiFeP2O7,2.3821,-7.581167647272727,-2.504293268874457
mp-540313,LiFe(PO3)3,4.1748,-7.606352715714286,-2.523708880161565
mp-559163,KFeAs2O7,2.6985,-6.700644495,-1.829975128386363
mp-561087,LiFe(MoO4)2,2.0562,-7.962137485,-1.9909764569444461
mp-616215,FeC3SeO3,2.0646,-7.363664655625,-0.551688133105469
mp-636215,FeC3SO3,0.33940000000000003,-7.4635119709375,-0.5712294371874991
mp-695805,Li2FeP2O7,4.2456,-7.368792615833333,-2.555914196746031
mp-698096,La5FeRe3O16,0.0,-8.9396065336,-2.953135516099999
mp-752566,Li3Fe(BO2)5,4.082800000000001,-7.71678680868421,-2.607662665833333
mp-752659,Li2FeP2O7,3.951799999999999,-7.340533718958333,-2.527655299871031
mp-752697,LiFeP2O7,2.746,-7.528690694090909,-2.45181631569264
mp-752873,Li8Fe(O2F)2,3.022799999999999,-5.388628950166666,-2.231232089277777
mp-752657,Li2FeP2O7,4.350899999999999,-7.355985083333334,-2.5431066642460323
mp-753018,LiFeP2O7,1.948999999999999,-7.508019529999998,-2.431145151601731
mp-753902,LiFeBO3,3.325199999999999,-7.646520146666667,-2.329483669583334
mp-754386,Li2CrFeO4,1.9946000000000002,-7.387223786666667,-2.1706289825000002
mp-754348,Li2CrFeO4,2.023,-7.39362179375,-2.177026989583334
mp-755153,Li4Cr3FeO8,2.467999999999999,-7.5836878231250004,-2.293153877708333
mp-755545,Li6Fe(O2F)2,1.04,-5.583660180384616,-2.234190397307692
mp-755682,Li4FeO3F,2.6078,-5.815286518333333,-2.163792288703703
mp-755550,Li2CrFeO4,2.0718,-7.387571054375,-2.170976250208333
mp-756242,Li2CrFeO4,2.0383,-7.393772102916666,-2.177177298749999
mp-756144,Li4Fe(PO4)2,4.2344,-6.863442427333333,-2.428752576174602
mp-756561,KLi4FeO5,0.0,-5.592974462272727,-1.7768937873257582
mp-756456,Li2Cr3FeO8,0.013500000000000002,-7.786031574285714,-2.012410331904761
mp-756767,Li3Fe(CoO2)4,0.0,-6.7092714775,-1.564637431875
mp-756969,Li2VFeO4,1.215099999999999,-7.346904686249999,-2.201452557083332
mp-757067,FePHO5,0.0,-7.14570661625,-1.8931483413616061
mp-757035,Li5FeP3O11,4.2351,-7.036135475749999,-2.601704117029761
mp-757455,LiFePO4,3.4957000000000003,-7.506783175,-2.423031514710883
mp-758232,Li2Fe(PO4)2,0.0,-7.196385299615384,-2.373115912380951
mp-758678,LiFe(PO3)3,3.7629,-7.592567847678572,-2.5099240121258513
mp-758699,Li2V2FeO6,0.21120000000000003,-7.681149721515152,-2.213563802121212
mp-758623,Li6FeNi9O20,0.0,-6.02789605138889,-1.2805624783333331
mp-758874,Li2Mn2FeO6,0.011800000000000001,-7.456655326060606,-1.974867729926855
mp-758921,LiFePO4,3.763899999999999,-7.522661224285714,-2.438909563996598
mp-758983,Li2Fe(NiO3)2,0.0,-6.3052723845454555,-1.438371808787878
mp-758909,LiFePO4,3.6487,-7.478464520714285,-2.394712860425169
mp-759051,Li2FeCo9O20,0.050699999999999,-6.7448120578125,-1.262067135208334
mp-758865,Li2Fe(PO3)4,4.3957,-7.476271884210526,-2.5644143523809513
mp-759050,Li6FeCo9O20,0.5032000000000001,-6.594085652222223,-1.508432069166667
mp-759091,Li2FeP4O13,0.041800000000000004,-7.3571124365,-2.443449731011905
mp-759197,Li8FeNi9O20,0.0,-6.017064570789474,-1.41912103491228
mp-761094,Li10FeCo9O20,1.963099999999999,-6.47796331,-1.709982798583333
mp-762657,LiFe(PO3)3,3.9316,-7.586272354999999,-2.503628519447278
mp-764500,Li8Fe(O2F)2,3.0845,-5.383439579666667,-2.226042718777777
mp-764865,Li8FeCo9O20,0.147899999999999,-6.569249703421053,-1.650792473859649
mp-765605,LiFePO4,3.4959,-7.5069870339285725,-2.423235373639455
mp-765712,Li4FeNi3O8,0.0,-6.166261324375,-1.601898152083333
mp-768696,Li3Cr3FeO8,0.0,-7.6683487753333335,-2.152374091333333
mp-768703,Li4Cr3FeO8,2.3935,-7.5642846875,-2.273750742083333
mp-768704,Li4Cr3FeO8,2.4461,-7.564224812812499,-2.273690867395832
mp-768687,Li4Cr3FeO8,2.349999999999999,-7.5663882090625,-2.275854263645833
mp-768805,Li4Cr3FeO8,2.3388,-7.56506192875,-2.274527983333333
mp-769545,Li10FeNi9O20,0.0,-5.9955272125,-1.532034710083333
mp-770328,Li4Cr3FeO8,2.2085,-7.576757315312499,-2.286223369895832
mp-772432,FeH4(SO5)2,0.035500000000000004,-6.215348375882353,-1.520818014117647
mp-774251,LiFePO4,3.4587,-7.5181240625,-2.434372402210884
mp-775153,Li3FeOF3,3.183099999999999,-5.491925500625,-2.381137008125
mp-779307,Li3Fe(BO3)2,2.5204999999999993,-6.977914906666666,-2.2076366248611112
mp-800259,Li5Cr3FeO8,0.0,-5.195389385882353,-0.10377373921568601
mp-800964,LiFeP2O7,0.0373,-5.639537039545455,-0.562662661147185
mp-782636,Li2Cr2FeO6,0.0,-7.6533379266666675,-2.082271752727274
mp-797419,LiFePO4,0.0,-5.455790218214285,-0.37203855792516904
mp-801566,Li4V3FeO8,0.8097000000000001,-7.3803790825,-2.196559149583334
mp-859124,Li5Fe(P2O7)2,2.037,-7.103463266458333,-2.56396394500992
mp-867567,LiFePO5,0.0,-7.2405054515625,-2.173727623184524
mp-939353,FePO4F,0.0,-3.930503578571428,1.153952297193877
mp-1227123,CaLaFeO4,1.401899999999999,-7.933817099285713,-2.904749639999999
mp-1571056,Li2Mn2FeO6,1.2011,-7.431902014999999,-1.950114418866248
mp-758801,LiFe(PO3)4,2.1987,-7.555871163194445,-2.477183927744709
mp-754097,Li2FeBO4,2.6486,-7.148679750937499,-2.303791909166666
mp-1517079,Ba2SrFeO6,0.0,-6.64500069125,-2.27618417025
mp-1520924,Eu2FeSnO6,0.0,-8.82969637625,-2.555338083749999
mp-1213629,FeS2NO20,0.0,-5.099027101562499,0.069482823020833
mp-756449,Li4Y3FeO8,2.708999999999999,-7.579839613124999,-2.8787974120833333
mp-758079,Li2FeCo3O8,0.32370000000000004,-6.767211601785713,-1.5335112344047621