Material_ID,Formula,Band_Gap,Energy_per_Atom,Formation_Energy_per_Atom
mp-2716392,Na2Zr4Sc4Si3(S3O16)3,2.5995,-7.768700430000001,-2.722594159503696
mp-2716402,Na2Mg2Ti6Si3(S3O16)3,1.245399999999999,-7.470792483333334,-2.551640310122742
mp-2716388,Na2Al4Si3Ge4(S3O16)3,1.2641,-6.9003191720000014,-2.226302390075123
mp-2716363,Na2Zr6Zn2Si3(S3O16)3,2.4879000000000002,-7.521151415380952,-2.55668782974179
mp-2716364,Na2Y6Nb2Si3(S3O16)3,1.0758,-7.7329794906666685,-2.690637789598934
mp-2716420,Na2Zr4Ga4Si3(S3O16)3,2.3904,-7.273105035476191,-2.4158200839798862
mp-2716427,Na2Ga4Si3Ge4(S3O16)3,1.167499999999999,-6.672746136333334,-2.039728200551314
mp-2716448,Na2La4Zr4Si3(S3O16)3,2.43,-7.6988865710952386,-2.732578129170361
mp-2716466,Na2Ca2Si3Sn6(S3O16)3,0.482699999999999,-6.755713328857143,-2.1589220305036942
mp-2716371,Na2Zn2Si3Sn6(S3O16)3,0.734399999999999,-6.612088217,-2.036607097789408
mp-2716424,Na2Hf6Zn2Si3(S3O16)3,3.129,-7.697766903333333,-2.6124900262656
mp-2716435,Na2Hf4In4Si3(S3O16)3,2.0315,-7.362353705000001,-2.439893546598933
mp-2716373,Na3InSi3Sn3(SO8)3,1.8754,-6.748449584594595,-2.255067191170395
mp-2716432,Na5HfGa3Si3(SO8)3,2.9983,-6.902887741367522,-2.462062666928972
mp-2716439,Na2Al4Si3Sn4(S3O16)3,1.5271,-6.883014133285715,-2.244051979932266
mp-2716443,Na2Sc4Si3Ge4(S3O16)3,1.206199999999999,-7.152815493142858,-2.330976238360838
mp-2716401,Na2Zr4Al4Si3(S3O16)3,2.668999999999999,-7.487317632428572,-2.589033834789409
mp-2716407,Na3ScSi3Sn3(SO8)3,1.9944000000000002,-6.995998712072073,-2.406040768332558
mp-753300,LiSi2NiO6,1.4438,-7.328744835749999,-2.505998672083334
mp-1222201,Mg3Fe(SiO4)2,3.8682,-7.541304137499999,-2.9844644692857143
mp-1222202,MgFe(SiO2)2,1.7073,-7.185086020625,-2.0922146075
mp-777484,LiV2(SiO4)2,0.0,-8.190919475384616,-2.766991851794872
mp-779630,Li3V2(SiO5)2,1.6186999999999991,-7.658629719705882,-2.7042281402941173
mp-1221121,NaSi2H7O8,4.9156,-6.18928459361111,-1.992495151951628
mp-1262309,CaCoSi2O7,0.0,-7.540830397727273,-2.574886789090908
mp-1235249,LiSi2(AgO)8,0.0,-5.214509446842105,-1.262575320877192
mp-1234407,CaSi2(AgO)8,0.6392999999999991,-5.33503644368421,-1.3780140538596481
mp-1233835,MgSi2(AgO)8,0.363899999999999,-5.2666791663157895,-1.32940045359649
mp-780871,LiFe2(SiO4)2,0.0,-7.664107115256409,-2.334623316282051
mp-1221423,Na2Mn(SiO3)2,2.416,-7.487269123636364,-2.7251001291536063
mp-12797,BaBe2Si2O7,5.5695,-7.88033956375,-3.30665925
mp-555363,Na2Cd(SiO3)2,3.0701,-6.632271472121213,-2.615739305099268
mp-766231,Li2V(SiO3)2,2.0641,-7.629550698333333,-2.771354889848485
mp-758182,Li2Cr(SiO3)2,1.6578,-7.646421256515151,-2.7364853207575752
mp-758910,Li2Fe(SiO3)2,3.036299999999999,-7.46609090969697,-2.663702815757576
mp-759238,Li2Mn(SiO3)2,2.9475000000000002,-7.634696419848485,-2.7693997729937303
mp-766931,Li2Si2NiO6,3.4478,-7.14744310530303,-2.589589968636364
mp-757250,Li2Mn(SiO3)2,2.8109,-7.640746828787878,-2.775450181933124
mp-863421,Li2V(SiO3)2,1.6437,-7.641256177272727,-2.783060368787879
mp-863407,Li2Fe(SiO3)2,2.6242,-7.471383009545454,-2.668994915606061
mp-1223741,KSi2HO5,4.8853,-7.243167412777778,-2.7857254965
mp-1262173,Li2Fe2Si2O9,0.0317,-7.3456514275,-2.269639876944444
mp-542840,In2Si2Pb2O9,3.445799999999999,-6.955533573666667,-2.400471791555555
mp-572951,CsNaSi2O5,4.7271,-7.109550799027778,-2.905090861920498
mp-581955,CsSi2SbO7,3.401799999999999,-7.3235139965151514,-2.730482914211076
mp-557027,Rb2Be2Si2O7,4.3938,-7.199464338076923,-2.974367648076923
mp-1341160,CaCoSi2O7,0.0,-7.535442538181818,-2.5694989295454542
mp-1190900,BaZn2Si2O7,3.2486,-7.01248448875,-2.852082384166666
mp-707304,Be4Si2H2O9,5.739199999999999,-7.384200357647059,-2.847125684558824
mp-1221967,MgFe(SiO3)2,0.0,-7.716336871,-2.6524475395
mp-2219002,MgTi2(SiO4)2,0.933,-7.98063138076923,-2.760956138589743
mp-2219468,MgTi2(SiO4)2,0.2338,-8.360245315384615,-3.140570073205128
mp-752915,LiV2(SiO4)2,0.0,-8.195979475384615,-2.772051851794871
mp-1182213,CaAl2(SiO6)2,0.631,-7.0075426875,-2.317959178088235
mp-1191190,NaSi2BO7,0.7714000000000001,-7.445119018181819,-2.58080305050418
mp-1199448,CaAl2(SiO6)2,0.11870000000000001,-6.90196307367647,-2.212379564264705
mp-1303127,Li3Fe2(SiO4)2,1.8254000000000001,-7.388625256666667,-2.515216248666667
mp-555191,La3Si2Cl3O7,3.8686,-7.853209126333334,-3.463876167000001
mp-556806,BaNa2(SiO3)2,4.1731,-7.105694397727273,-3.001983617068965
mp-556884,CaSi2(NO)2,4.369099999999999,-8.034199391666666,-2.401526043095239
mp-556531,LiSi2BO6,5.8434,-7.973816687125,-3.061145014375
mp-558102,KLiSi2O5,4.7068,-7.268316803333333,-2.9760130617314813
mp-559391,Pr3Si2Cl3O7,4.8482,-7.738999462333333,-3.377773632333332
mp-753220,Li2Co(SiO3)2,3.1271,-7.326257187272728,-2.645378592424243
mp-754643,LiV2(SiO4)2,0.8225,-8.210563792307692,-2.786636168717948
mp-753874,Li2Si2NiO6,3.4303,-7.158977952272727,-2.60112481560606
mp-756392,LiCuSi2O5,2.0917,-7.229779474444445,-2.607716072037037
mp-758173,Li3Fe2(SiO4)2,1.398499999999999,-7.388955226999999,-2.515546219
mp-758569,Li3Fe2(SiO4)2,1.368399999999999,-7.369816351333332,-2.496407343333333
mp-758973,Li3Fe2(SiO4)2,1.380099999999999,-7.367681503,-2.494272495
mp-759019,Li3Co2(SiO4)2,0.12490000000000001,-7.087596841333334,-2.392401765333334
mp-769538,Li3Mn2(SiO4)2,0.0,-7.552272360000001,-2.586597474390805
mp-763619,Li2Fe(SiO3)2,3.5406,-7.504962391363636,-2.702574297424242
mp-769543,Li3Mn2(SiO4)2,0.0,-7.561523560333334,-2.595848674724139
mp-766120,Li3VSi2O7,2.117599999999999,-7.472074460769231,-2.8338407865384623
mp-780126,Li3MnSi2O7,0.9207999999999991,-7.35118324076923,-2.706941164840848
mp-777651,Li3Co2(SiO4)2,0.061099999999999,-7.080084407666667,-2.384889331666667
mp-780287,Li3Mn2(SiO4)2,0.0,-7.556955664333333,-2.591280778724138
mp-1179076,SrVSi2O7,2.8515,-8.247795558181819,-3.1330048986363632
mp-1190381,BaVSi2O7,2.8032,-8.264856203636363,-3.129470375909091
mp-1193195,CaZn2(SiO4)2,0.22940000000000002,-6.7150129842307695,-2.487365968846153
mp-6507,Na2Zn2Si2O7,3.323,-6.475499838461538,-2.576323540596816
mp-753530,Li2Mn2Si2O7,2.8916999999999993,-7.848570321538461,-2.646398059040672
mp-758330,Li2Co2Si2O7,2.931599999999999,-7.314386010384615,-2.424305835897435
mp-757107,Li2Fe2Si2O7,3.2718,-7.6249758669230765,-2.529264232435896
mp-753838,Li2Si2Ni2O7,3.5028,-7.073462275000001,-2.391579029743589
mp-758296,Li2Co2Si2O7,2.4285,-7.317792144615385,-2.427711970128205
mp-758631,Li2Fe2Si2O7,2.8779,-7.58319547576923,-2.48748384128205
mp-859108,Li2Mn2Si2O7,3.025,-7.90300041,-2.70082814750221
mp-1261497,Li2Cr(SiO3)2,0.194799999999999,-7.676254667727273,-2.766318731969697
mp-556013,Na2Be(SiO3)2,4.7889,-7.23047921,-2.961274072523512
mp-6675,Na2Zn(SiO3)2,3.8766,-6.756410045454545,-2.712629385705328
mp-753193,Li2Cr(SiO3)2,1.528,-7.4931108545454554,-2.5831749187878783
mp-758014,Li2Co(SiO3)2,3.1933,-7.3326819553030305,-2.651803360454545
mp-757685,Li2Cu(SiO3)2,0.112999999999999,-6.96786418,-2.562822862424242
mp-697027,NaSi2(HO2)3,5.1897,-6.721434887708334,-2.382633038969109
mp-753142,Li2Co(SiO3)2,3.0051,-7.388322721818182,-2.707444126969697
mp-753634,Li2Fe(SiO3)2,3.4496,-7.546074661590908,-2.743686567651515
mp-754949,Li2Mn(SiO3)2,3.4864,-7.702129369545455,-2.8368327226907013
mp-752828,Li2Si2NiO6,3.6885,-7.212707506818182,-2.654854370151515
mp-863428,Li2Fe(SiO3)2,2.9155,-7.500209765,-2.697821671060606
mp-861394,Li2Si2NiO6,3.760499999999999,-7.150011598939394,-2.592158462272728
mp-774598,Li2Mn(SiO3)2,3.2393,-7.65161781439394,-2.7863211675391852
mp-1224744,Gd3Si2BrO8,2.1851,-10.29062519,-3.554936807500001
mp-1177304,Li4Si2NiO7,2.3215,-6.820284457142856,-2.612985082738094
mp-1177640,Li3Mn2(SiO4)2,0.0,-7.556170636666667,-2.590495751057472
mp-1177678,Li3Fe2(SiO4)2,0.0,-7.360043509333333,-2.486634501333333
mp-1207607,YScSi2O7,4.536300000000001,-8.934000028181817,-3.631461509999999
mp-1222486,Li5Al(SiO4)2,4.5604,-6.90788357625,-2.925101434791666
mp-1263073,Li2Mn(SiO3)2,3.4173,-7.6599560622727285,-2.794659415417973
mp-1306908,Li4Si2NiO7,3.5697,-6.819702184107142,-2.61240280970238
mp-1308156,Li3Fe2(SiO4)2,1.6962000000000002,-7.387313242333333,-2.513904234333333
mp-1640236,Li7Si2(NiO4)3,0.591499999999999,-6.335334442083333,-2.129957849305555
mp-1569720,Li2Si2NiO6,3.425799999999999,-7.199503685454545,-2.641650548787878
mp-2227821,MgTi2(SiO4)2,0.11969999999999902,-8.23784752923077,-3.018172287051282
mp-561245,Sr8Si2PtO14,2.26,-7.0589331656,-3.0696272388
mp-7079,CaZrSi2O7,4.5532,-8.599572863636363,-3.505057990454544
mp-753710,Li5Fe(SiO4)2,2.488299999999999,-6.91221384125,-2.634153863541667
mp-752722,Li4MnSi2O7,3.3379,-7.198277596607143,-2.749415464197455
mp-752704,Li5V(SiO4)2,0.21829999999999902,-7.057138256875,-2.740710475416666
mp-752894,Li3Co2(SiO4)2,0.5112,-7.093413484,-2.398218408
mp-753204,Li5Si2NiO8,1.1305,-6.601807890625,-2.491865696041666
mp-753713,Li4FeSi2O7,3.5522,-7.080746920892857,-2.68131293720238
mp-756422,Li4CuSi2O7,0.6827999999999991,-6.654922827142856,-2.567689882023809
mp-756892,Li3Co2(SiO4)2,0.679999999999999,-7.056810939333333,-2.361615863333333
mp-757169,Li2Mn(SiO3)2,3.3533,-7.627618443181819,-2.762321796327064
mp-759510,Li3Co2(SiO4)2,0.0,-7.095291808666667,-2.400096732666667
mp-760462,Li5Ti(SiO4)2,0.553499999999999,-7.084519319375,-2.8423674162499992
mp-859129,Li5Si2BiO8,2.7609,-6.563096637499999,-2.571285841041666
mp-861554,Li5Mn(SiO4)2,0.5485999999999991,-6.9578940940625,-2.636584486224857
mp-728491,K2ScSi2O7,0.4707,-7.452857158020834,-2.946059520895833
mp-1201570,Na2Mn(SiO3)2,2.3266,-7.486677535454546,-2.724508540971787
mp-1204499,BaAl2(SiO5)2,1.285499999999999,-7.287064042583333,-2.637705861916666
mp-1217661,Tb5Si2BO13,4.4975000000000005,-8.716764920952382,-3.714724967976191
mp-1223205,La5Si2BO13,4.153599999999999,-8.779259812857143,-3.706233316626985
mp-1223240,La5AlSi2O13,4.157800000000001,-8.695204017142858,-3.7618830419047633
mp-1225574,Dy5Si2BO13,4.5395,-8.716244012857143,-3.7188440825
mp-1225149,Gd5Si2BO13,2.6556,-10.915005481666666,-3.665761096150794
mp-561246,Al2Si2Pb2O9,2.824899999999999,-7.560820037,-2.874237976666667
mp-5996,Na2Ti2Si2O9,2.9482,-8.0842712065,-3.160490493461686
mp-6764,BaSi2(NO)2,3.0102,-7.961454132857142,-2.341155775714285
mp-758821,Li2Fe2Si2O9,0.0,-7.338375154666666,-2.26236360411111
mp-758712,Li2Cr2Si2O9,0.5571,-7.798970360833334,-2.565221975611111
mp-766119,Li2V2Si2O9,1.5882,-7.929599873833333,-2.771737008611111
mp-779016,Li2Mn2Si2O9,0.8902000000000001,-7.638769039166666,-2.470491611001916
mp-1041491,MgTi(SiO3)2,0.1751,-8.0186011525,-3.012164740333333
mp-1041480,MgSi2SnO6,3.1324,-7.476094029625,-2.8582496336250003
mp-1041488,TiZn(SiO3)2,0.0,-7.6739675195,-2.704603747833334
mp-1041479,MgCu(SiO3)2,0.3771,-7.359121112375,-2.732313234875
mp-1041504,ZnCu(SiO3)2,0.34779999999999905,-7.012162413125,-2.422427176125
mp-1041482,ZnSi2SnO6,3.0593,-7.134293022625,-2.5535212671250003
mp-1041529,CaSi2SnO6,3.3723,-7.610153185,-2.9547958025
mp-1041850,ZnCo(SiO3)2,3.142499999999999,-7.428469456250001,-2.5353132142500012
mp-1041863,MnZn(SiO3)2,2.6199,-7.79878702725,-2.702770928043104
mp-1041873,MgSi2WO6,1.1673,-8.087725529875,-2.575025296375
mp-1041852,ZnSi2NiO6,3.536299999999999,-7.279686074375,-2.5218578363749993
mp-1041862,MgCr(SiO3)2,2.372,-8.160302195499998,-2.9781102379999993
mp-1041594,CaCu(SiO3)2,0.48280000000000006,-7.46907698225,-2.8047561182500003
mp-1041564,CaTi(SiO3)2,0.19259999999999902,-8.115520986875001,-3.071571588208334
mp-1041856,ZnCr(SiO3)2,1.998599999999999,-7.81362363575,-2.66850431875
mp-1041840,MgCo(SiO3)2,3.0905,-7.7750993565,-2.844870474
mp-1041868,ZnFe(SiO3)2,3.169499999999999,-7.62783229725,-2.60101560625
mp-1041874,VZn(SiO3)2,1.774099999999999,-7.788217289625,-2.700012112625
mp-1041845,MgMn(SiO3)2,3.101,-8.144932852375002,-3.011844112668105
mp-1041866,MgV(SiO3)2,2.3372,-8.13544133775,-3.010163520250001
mp-1041877,ZnSi2WO6,0.587399999999999,-7.743494845000001,-2.267867252
mp-1041992,CaSi2WO6,1.589,-8.240096362875,-2.689883142875
mp-1041879,CaV(SiO3)2,2.189999999999999,-8.222389773875,-3.059598969875
mp-1041904,CaMn(SiO3)2,3.2192,-8.24995297325,-3.079351247043104
mp-1042056,CaSi2NiO6,3.757,-7.725466501999999,-2.893052636999999
mp-1041887,MgSi2NiO6,3.937499999999999,-7.625591690624999,-2.830690812124999
mp-1041922,CaFe(SiO3)2,3.594799999999999,-8.079906845625,-2.978504527624999
mp-1041912,CaCo(SiO3)2,2.9747999999999992,-7.87758049625,-2.909838627250001
mp-1041945,CaCr(SiO3)2,2.6023,-8.268211401875,-3.048506457875
mp-1196034,Pr3Si2BO10,4.7116,-8.65027752234375,-3.563024256354166
mp-1196416,Eu3Si2BO10,0.0,-9.323072106484375,-3.205948754869792
mp-1196844,MgFe(SiO3)2,3.276099999999999,-7.953873737625,-2.889984406125
mp-1198316,Gd3Si2BO10,2.807,-10.403909381953126,-3.576534094401042
mp-13500,Sm3Si2BO10,4.912599999999999,-8.665760463203124,-3.592923195338541
mp-1266318,LiFe(SiO3)2,3.036299999999999,-7.82939483575,-2.737660219083333
mp-558019,Ce3Si2BO10,0.0,-8.808567092578125,-3.50728662440104
mp-558339,MgFe(SiO3)2,3.804599999999999,-7.973771972125,-2.909882640625
mp-558695,Ba2Mn2Si2O9,1.9934,-8.11088899225,-2.941271287640806
mp-757449,LiFe(SiO3)2,2.7681999999999993,-7.847137870999999,-2.7554032543333333
mp-757604,LiCr(SiO3)2,3.1934,-8.133755495749998,-2.923718253083332
mp-757570,LiFe(SiO3)2,2.969699999999999,-7.797823696875,-2.706089080208333
mp-757013,LiMn(SiO3)2,1.2607,-7.926892545375,-2.765958520501437
mp-757419,LiTi(SiO3)2,0.16640000000000002,-8.164035231375,-3.129753534041667
mp-765346,LiV(SiO3)2,2.1872,-8.127568372375,-2.974445269708334
mp-757866,LiMn(SiO3)2,0.9289000000000001,-7.9706068378750015,-2.809672813001437
mp-773117,La3Si2BO10,4.438200000000001,-8.740163609531251,-3.626559909791668
mp-1200775,Al2Si2PbO10,0.0,-7.200144696666668,-2.431208374000001
mp-1204015,CaFe3Si2O9,1.5845,-7.7005219175,-2.1806586765000002
mp-1203642,KSi2HO5,5.0122,-7.243291093333332,-2.785849177055555
mp-1213943,Cd5Si2PO12,0.0,-6.1872761485,-2.165191518732142
mp-1238485,CaFe3Si2O9,1.8425,-7.837953730833334,-2.318090489833334
mp-22407,BaCu2Si2O7,0.0,-7.152989974583334,-2.519344026666667
mp-23622,Sm3Si2ClO8,4.5816,-8.369775095714285,-3.624159441071429
mp-555387,BaSi2(BO4)2,5.5233,-8.252828966538459,-3.198053383333333
mp-557463,Na3ScSi2O7,4.0305,-7.318767438846153,-3.023075551472148
mp-557780,CsSi2HO5,4.7921,-7.215900694722222,-2.783280128711686
mp-558883,Y3Si2ClO8,4.7028,-8.757507318392857,-3.628211942678571
mp-559764,Nd3Si2ClO8,4.566699999999999,-8.357702789642858,-3.601466856964285
mp-6032,SrSi2(BO4)2,5.68,-8.244705276538461,-3.207356374102564
mp-6383,BaBe2Si2O7,5.6238,-7.879980423541666,-3.306300109791665
mp-6419,CaSi2(BO4)2,5.6644000000000005,-8.255583799230768,-3.194144759102563
mp-6607,Ca5Si2SO12,4.5199,-7.449692484125,-3.230066129750001
mp-758247,Li3CrSi2O7,2.7976,-7.452188987115385,-2.770175205192307
mp-758766,Li3FeSi2O7,1.6789,-7.231034089038461,-2.640022327115384
mp-759270,Li5Fe(SiO4)2,2.0335,-6.83157113734375,-2.553511159635417
mp-766039,Li3VSi2O7,2.1313,-7.449546703461538,-2.811313029230769
mp-780089,Li3MnSi2O7,0.035699999999999,-7.340987193846154,-2.696745117917772
mp-859186,CaFe3Si2O9,1.150599999999999,-8.045600896333333,-2.525737655333334
mp-863427,Li3Si2BiO7,3.2385,-6.8479078480769235,-2.609202770769231
mp-1182396,Ba3Na(SiO4)2,0.14549999999999902,-7.147577657142857,-3.038079821527093
mp-1197460,Al4Fe(SiO6)2,0.0,-7.910647023684211,-2.9802000421052632
mp-1192758,CaAl2(SiO5)2,0.0,-7.084518623333333,-2.4293854466666662
mp-1194309,CaAl2(SiO5)2,0.0,-7.363536150000001,-2.708402973333334
mp-1208671,SrMn2(SiO5)2,0.0,-7.662451511666666,-2.306004526057471
mp-19296,SrVSi2O7,2.8547000000000002,-8.248265750909091,-3.133475091363636
mp-555561,BaU(SiO4)2,2.3906,-8.756116527083334,-3.452390772916666
mp-560441,BaZn2Si2O7,3.3014,-7.016437285416667,-2.856035180833333
mp-559208,SrTiSi2O7,3.608499999999999,-8.402513462272728,-3.395760443939394
mp-25243,Li3V2(SiO5)2,0.0,-7.65314826,-2.698746680588235
mp-1204710,MnAl2(SiO5)2,0.0,-7.7784925305,-2.646264993028736
mp-1198093,Al2Fe(SiO5)2,0.0478,-7.6264115665,-2.5403169678333333
mp-1177679,Li3Fe2(SiO4)2,1.606799999999999,-7.391906891,-2.518497882999999
mp-1645783,Li2Si2NiO6,3.7949,-7.21473480340909,-2.656881666742424
mp-556318,Cr4Si2Cl2O7,2.320299999999999,-8.2671898615,-2.4141481085
mp-557963,Cr4Si2Br2O7,2.2567,-8.164513232500001,-2.339683496166666
mp-757200,Li3Si2Bi3O10,3.2757,-6.666549766111111,-2.348376563888889
mp-758102,Li3Co2(SiO4)2,0.04020000000000001,-7.097896520000001,-2.402701444
mp-759124,Li3Co2(SiO4)2,0.3785,-7.097010936,-2.40181586
mp-760971,Li3Fe2(SiO4)2,0.5579000000000001,-7.357565124,-2.484156116
mp-760096,Li3Fe2(SiO4)2,1.6996,-7.367459418999999,-2.494050410999999
mp-765250,Li6V(SiO4)2,1.8226,-6.787951952941176,-2.6131421076470582
mp-774355,Li3Co2(SiO4)2,0.5493,-7.093827640333333,-2.398632564333333
mp-774356,Li3Mn2(SiO4)2,0.0,-7.554754669333333,-2.589079783724137
mp-774106,Li3Fe2(SiO4)2,1.5418999999999992,-7.372820184999999,-2.499411177
mp-774171,Li3Mn2(SiO4)2,0.0,-7.5583195456666665,-2.592644660057471
mp-781591,Li3Co2(SiO4)2,0.011600000000000001,-7.095861136666667,-2.400666060666667
mp-778032,LiV2(SiO4)2,1.154499999999999,-8.21236413,-2.788436506410256
mp-780288,Li3Si2(NiO4)2,1.032,-6.812482019,-2.297724281666666
mp-778490,Li3Co2(SiO4)2,0.1852,-7.045177488333334,-2.349982412333333
mp-778622,Li3Fe2(SiO4)2,1.9420000000000002,-7.356382838666666,-2.482973830666666
mp-777771,Li3Si2(NiO4)2,1.0158,-6.816250955333333,-2.301493217999999
mp-849671,Li5Co2(SiO5)2,0.239299999999999,-6.67035354763158,-2.241843343245614
mp-778489,Li3Mn2(SiO4)2,0.381399999999999,-7.558783818333334,-2.593108932724139
mp-560438,Na2Be(SiO3)2,3.8804,-7.180226804242424,-2.911021666765936
mp-581584,Cs2U(SiO4)2,2.2088,-8.08609686201923,-3.198274611966179
mp-1221993,MgZrSi2O7,2.763699999999999,-8.339802843181817,-3.279390684999998
mp-1105589,Al2Si2H4O9,4.506500000000001,-7.090980080588236,-2.5936799323529423
mp-1103601,Fe2Si2BiO9,0.024799999999999003,-7.688007500714286,-2.244267369642858
mp-1103957,Fe2Si2SbO9,0.011600000000000001,-7.725485582857142,-2.264676385357142
mp-1183270,Al2Si2H4O9,4.943,-7.104168610588236,-2.6068684623529412
mp-1215671,Zn4Si2H2O9,3.115,-6.184461711176471,-2.230838627500001
mp-1229075,Al9Si2BO19,4.973700000000001,-8.043170333225806,-3.3576390623924732
mp-1931800,Mn13Si2(SbO14)2,0.0,-8.078685145555555,-1.928513023846743
mp-757066,Li3Co2(SiO4)2,0.0,-7.063432551333333,-2.368237475333333
mp-762820,LiV2(SiO4)2,0.9269000000000001,-8.216632871538462,-2.792705247948718
mp-766075,Li5Cr17(SiO16)2,1.0934,-8.527730926964285,-2.405734327976191
mp-763575,Li10Co(SiO5)2,1.9515000000000002,-6.189103106304348,-2.425933910797102
mp-1233615,MgSi2(AgO)8,0.0,-5.225092587368421,-1.287813874649122
mp-1235565,LiSi2(AgO)8,0.0,-5.246839991052631,-1.294905865087717
mp-1234365,CaSi2(AgO)8,0.0,-5.27220833,-1.315185940175437
mp-558509,BaVSi2O7,2.2023,-8.246129457272728,-3.110743629545454
mp-554433,KAl(SiO3)2,4.852099999999999,-7.762218135,-3.220683370725
mp-757648,LiFe(SiO3)2,3.0002,-7.766778675875,-2.675044059208333
mp-1183008,Al2Si2H4O9,4.2256,-6.745369407352942,-2.248069259117648
mp-1198588,Al2Si2H4O9,4.866300000000001,-7.106440857647059,-2.609140709411765
mp-1221466,Na2Zr(SiO4)2,0.626599999999999,-7.493760823076922,-2.750263416366047
mp-1223085,La3Si2ClO8,4.4655000000000005,-8.450354837142857,-3.658148974642857
mp-1226904,CaAl4Si2O11,5.104999999999999,-7.898046757777777,-3.3277072958333322
mp-1986763,Li2Si2NiO6,3.921299999999999,-7.177164977727273,-2.619311841060605
mp-2715681,Ta2Si2SO12,3.8431,-8.717220542843137,-2.946727438558824
mp-2715784,Nb2Si2SO12,3.0617,-8.369792466274511,-2.807019656421569
mp-696156,Ca3Si2(H3O5)2,4.7397,-6.651046056190476,-2.5216153713095233
mp-698132,Al2Si2H4O9,4.9007000000000005,-7.105622403235294,-2.608322255000001
mp-720262,Al2Si2H4O9,0.0,-6.457801413529412,-1.960501265294118
mp-721216,Al2Si2H4O9,4.9329,-7.10865270882353,-2.611352560588236
mp-752430,Li4MnSi2O7,3.4122,-7.210602883214286,-2.761740750804598
mp-754573,LiMn2Si2O7,0.9794,-8.119824702083333,-2.643214989932949
mp-755994,LiCo(SiO3)2,1.7181000000000002,-7.560505000000001,-2.602430832333334
mp-757988,Li4FeSi2O7,4.1088000000000005,-7.089322881071429,-2.689888897380952