Material_ID,Formula,Band_Gap,Energy_per_Atom,Formation_Energy_per_Atom
mp-14721,KSiSbO5,2.8079,-6.965628773125,-2.53744202090625
mp-1249661,LiMnSiO4,0.17069999999999902,-7.7974826197619045,-2.613468304228242
mp-14730,NaSiSbO5,3.1404,-6.9392884750000015,-2.484807840797415
mp-17709,Na2ZnSiO4,3.1365,-6.128319886562499,-2.483276484407326
mp-21724,ZnSiPbO4,3.1964,-6.693937688749999,-2.381144441607142
mp-16996,Li3GaSiO5,3.8432999999999993,-6.580299746749999,-2.688300978999999
mp-510760,LiCoSiO4,1.4221,-7.219789006071429,-2.32557448654762
mp-554006,SrCaSiO4,4.6805,-7.5613857229761905,-3.430644291547618
mp-559689,LiAlSiO4,5.2397,-7.5935915325,-3.18335428297619
mp-561743,Li2CoSiO4,3.3996999999999993,-7.0320821371875,-2.511029074270832
mp-644325,CsFeSiO4,3.0852,-7.448014086785713,-2.50584825387931
mp-6426,Na2MgSiO4,3.8537,-6.487910773125,-2.796526570344827
mp-6434,RbAlSiO4,4.3806,-7.4628289585714285,-3.185218679642857
mp-753749,LiVSiO4,2.659399999999999,-7.949258217500001,-2.776402362261905
mp-753797,LiVSiO4,2.6521,-7.941334711071429,-2.768478855833333
mp-757349,LiSiBiO4,2.868299999999999,-6.884066215714285,-2.45319204047619
mp-757038,LiSiBiO4,3.7618,-6.949017485,-2.5181433097619053
mp-757544,LiFeSiO4,2.6764,-7.555547472142857,-2.470389454047619
mp-757541,LiSiBiO4,3.231899999999999,-6.884916415238096,-2.454042240000001
mp-757833,Li2FeSiO4,3.157,-7.237787464375,-2.549658840208333
mp-757890,LiSiBiO4,3.4888,-6.929607866666667,-2.498733691428572
mp-758245,Li3SiBiO5,3.2412,-6.400271565999999,-2.422078969499999
mp-758411,Li3CoSiO5,1.201,-6.6868441815,-2.384313344
mp-758489,LiMnSiO4,0.1955,-7.794853534642856,-2.6108392191091943
mp-758499,LiFeSiO4,3.001499999999999,-7.605879052142856,-2.520721034047618
mp-758435,Li2CuSiO4,0.0,-6.470252839687499,-2.328476033020833
mp-758574,LiFeSiO4,3.0317,-7.598653418928571,-2.513495400833333
mp-757874,LiSiBiO4,3.1436,-6.949626050535714,-2.5187518752976192
mp-758595,Li2CrSiO4,1.6037,-7.395206355,-2.559199448333333
mp-758602,LiFeSiO4,2.4299,-7.545452243214285,-2.4602942251190463
mp-758614,LiFeSiO4,2.7213000000000003,-7.568907788214285,-2.483749770119047
mp-758703,LiCoSiO4,1.4410999999999992,-7.203693000357143,-2.309478480833334
mp-758743,Li2CuSiO4,0.0,-6.46396258125,-2.322185774583333
mp-758823,Li2FeSiO4,3.1827,-7.2428710728125,-2.554742448645833
mp-758991,LiFeSiO4,2.1612,-7.529222307321428,-2.444064289226189
mp-759053,LiFeSiO4,2.6185,-7.564952971785714,-2.479794953690475
mp-762880,LiCoSiO4,1.4523000000000001,-7.225051623214286,-2.330837103690477
mp-758708,Li2CuSiO4,0.0,-6.47173129875,-2.329954492083334
mp-759261,LiCoSiO4,1.4009,-7.2023426864285724,-2.308128166904762
mp-759671,Li2CoSiO4,3.0265,-7.026394132187501,-2.505341069270834
mp-761247,Li2CoSiO4,2.9499,-7.0259542928125,-2.5049012298958333
mp-764340,Li2FeSiO4,3.1827,-7.231878614375,-2.543749990208333
mp-766229,Li3VSiO5,1.706999999999999,-7.1751826972499995,-2.67760292475
mp-764957,Li2CoSiO4,2.807899999999999,-7.016720141562501,-2.495667078645834
mp-766350,LiSiBiO4,3.222,-6.889313471785714,-2.458439296547619
mp-764346,Li2FeSiO4,3.2325,-7.245931611875,-2.557802987708333
mp-764341,Li3FeSiO5,2.3424,-6.934381748,-2.4981904615
mp-766449,Li3TiSiO5,0.0,-7.2099055735,-2.831167206333334
mp-766496,Li2SiNiO4,3.5248,-6.7908854709375,-2.438992413020833
mp-766472,Li3SiNiO5,0.9950000000000001,-6.44729269025,-2.28008985675
mp-766529,LiFeSiO4,2.836999999999999,-7.571365867142857,-2.4862078490476183
mp-768020,Li2MnSiO4,3.0944,-7.44508294625,-2.670455061824713
mp-766542,LiFeSiO4,2.9031000000000002,-7.581736900357143,-2.496578882261904
mp-766664,LiFeSiO4,1.7716,-7.588192402976191,-2.5030343848809533
mp-774639,Li2MnSiO4,3.1485,-7.4532851125,-2.6786572280747123
mp-777657,LiCoSiO4,1.3731,-7.201978893928572,-2.307764374404763
mp-778997,Li3MnSiO5,0.23489999999999903,-7.022101264499999,-2.5167105697931023
mp-778061,LiCoSiO4,1.517399999999999,-7.215845386785715,-2.321630867261906
mp-831162,LiMnSiO4,1.644299999999999,-7.7619700542857135,-2.577955738752052
mp-780709,Li2MnSiO4,3.222,-7.455128386249999,-2.680500501824712
mp-861039,LiFeSiO4,2.631199999999999,-7.553241490357143,-2.4680834722619043
mp-849257,LiFeSiO4,2.8158000000000003,-7.566071695714285,-2.4809136776190472
mp-861603,Li2SiNiO4,3.3467000000000002,-6.79254052875,-2.440647470833333
mp-1202472,Zn2SiHO5,0.20289999999999903,-5.9908390022222235,-1.9819749229166672
mp-1203942,Zn2SiH2O5,3.0276,-6.020712818750001,-2.0732185035
mp-542168,Cs2CoSiO4,2.8661000000000003,-6.569312528125001,-2.298495789288794
mp-1219347,SiPb7(ClO4)2,1.420799999999999,-5.814978740555556,-1.6652782472222212
mp-1177998,Li2FeSiO4,2.9997,-7.2292143775,-2.5410857533333333
mp-1189398,KUSiO7,0.536,-7.794805672999999,-2.546423193224998
mp-1192407,MgSi(HO)6,5.429,-5.991197775714285,-1.9115868680357142
mp-1193955,MgSi(HO)6,5.5255,-6.000122192142856,-1.920511284464285
mp-1196842,Ca3SiS2O25,0.10930000000000001,-5.58517561016129,-0.9587929672580641
mp-1218879,Sr2Al2SiO7,4.2023,-7.716878120416666,-3.472123711666666
mp-1222223,Mg2Al2SiO9,0.0,-6.884391932142857,-2.548030591785715
mp-1227526,Ca2Ga2SiO7,3.5592,-7.152337047916666,-2.9749673087499993
mp-1227499,Ca2Al2SiO7,4.3406,-7.761089235833332,-3.464139528749999
mp-24369,Na2Si(H4O3)3,4.9669,-5.512928735,-1.6219951559482761
mp-560173,KAlSiO4,4.7605,-7.483921309880952,-3.184763080916666
mp-697618,NaAlSiO4,0.0,-3.224178445535714,1.105029934267241
mp-753810,Li2SiNiO4,3.4744,-6.785217860625,-2.433324802708333
mp-758434,LiFeSiO4,2.5498000000000003,-7.557334155357142,-2.472176137261904
mp-758637,Li2CoSiO4,2.981499999999999,-7.017906526875,-2.496853463958333
mp-763313,LiCoSiO4,1.4172,-7.206902505714287,-2.312687986190477
mp-760485,Li2CuSiO4,0.0,-6.4202891425,-2.278512335833333
mp-759942,Li2FeSiO4,3.1378,-7.2440837421875,-2.555955118020833
mp-764344,Li2FeSiO4,3.1893000000000002,-7.229791339062499,-2.541662714895833
mp-766458,LiFeSiO4,2.8042,-7.563519892857142,-2.4783618747619043
mp-850949,LiMnSiO4,0.893699999999999,-7.821365251428572,-2.637350935894911
mp-972831,SiGeN2O,3.6574,-7.697506713,-1.3629342370000002
mp-1226548,CsSiSbO5,2.191699999999999,-6.91891974875,-2.518657015581897
mp-1223119,La3SiN3O2,1.6782,-8.490373563333332,-2.363251942222222
mp-1219842,Pr3SiN3O2,1.578699999999999,-8.349647888888889,-2.269371483333332
mp-1182800,CaSi(HO2)2,0.0,-6.1201956190625,-1.8685587681250002
mp-1182799,CaSi(HO2)2,0.0,-6.0934437359375,-1.841806885
mp-1199682,CaSi(HO2)2,5.1408,-6.8706712309375,-2.61903438
mp-759160,Li2Fe2SiO6,2.2436,-7.32568777560606,-2.246508483484848
mp-1106222,Zn2SiHO5,0.1073,-5.995619930555556,-1.986755851249999
mp-643814,Zn2SiH2O5,3.1428,-6.026853776,-2.0793594607499992
mp-1033928,KMg14SiO16,0.6040999999999991,-6.1646239484375,-2.772416322101562
mp-1034210,Mg14TiSiO16,0.280699999999999,-6.4164672840625,-2.812880836041666
mp-1034446,Mg14VSiO16,3.052600000000001,-6.4501088603125,-2.809384473125
mp-1034282,Mg14SiSnO16,2.14,-6.167054991874999,-2.684903548906249
mp-1034837,CsMg14SiO16,0.316,-6.000336168437499,-2.615109546864223
mp-1034741,BaMg14SiO16,1.5590000000000002,-6.104869879374999,-2.688049589999999
mp-1034615,Mg14SiCO16,1.4845000000000002,-6.2976859509375,-2.652437831796875
mp-1034675,RbMg14SiO16,0.5214000000000001,-6.093867248125,-2.706373235859375
mp-1034646,NaMg14SiO16,0.642699999999999,-6.25930722625,-2.860526129418103
mp-1034756,Mg14NbSiO16,1.3987999999999992,-6.394496981874999,-2.7219788768749993
mp-1034633,Mg14SiBiO16,0.3718,-6.1187489903125,-2.640333095624999
mp-1034819,Mg14SiBO16,1.15,-6.263362464375,-2.697779149036458
mp-1034694,HfMg14SiO16,0.2033,-6.4245900293750005,-2.756575549687499
mp-1034698,SrMg14SiO16,2.2805,-6.1993800190625,-2.78963931875
mp-1034788,Mg14CdSiO16,2.1919,-6.127417368437499,-2.740564727499999
mp-1034860,Mg14ZnSiO16,2.806000000000001,-6.1867520421875,-2.790532731875
mp-1034870,Mg14CrSiO16,2.261599999999999,-6.4486850225,-2.790174966562499
mp-1035009,Mg14SiNiO16,0.5870000000000011,-6.314011940625001,-2.776530346875001
mp-1035249,Mg14CuSiO16,0.0,-6.275673688125,-2.7907211571875
mp-1035303,Mg14CoSiO16,0.7026999999999991,-6.360638378124999,-2.780866783124999
mp-1035536,LiMg14SiO16,0.6695000000000001,-6.313885003125,-2.8973788410416663
mp-1035599,Mg14FeSiO16,0.7329999999999981,-6.3828825628125,-2.7613420775
mp-1035955,YMg14SiO16,0.0,-6.3622391896875,-2.8019777578125
mp-1036102,Mg14MnSiO16,0.279199999999999,-6.4434623771875,-2.8002970768103452
mp-1036359,CaMg14SiO16,0.1887,-6.275177821874999,-2.8556505031249992
mp-1036604,Mg14AlSiO16,0.0,-6.29569259,-2.821791022812499
mp-1019586,CaAl2SiO6,4.536299999999999,-7.88920543,-3.4282218700000002
mp-1219967,RbNbSiO5,3.0692,-8.182454353046875,-3.026584082109375
mp-1226151,Cs2SiB4O9,4.7924,-7.77452660375,-2.868871022561063
mp-1302404,Li2SiNiO4,3.8209,-6.7852457634375,-2.433352705520834
mp-641710,Cu5Si(SbO6)2,0.0,-6.22549306525,-1.5477487692499992
mp-17366,Ho2SiSO4,2.6279,-8.2708164028125,-3.451956334374998
mp-16788,Gd2SiTeO4,0.0,-10.3249580509375,-3.260868998020833
mp-17633,Er2SiSeO4,2.5586,-8.134434782187501,-3.403370888730469
mp-18466,Nd2SiSeO4,2.6009,-8.1618069578125,-3.380635908730468
mp-17750,Pr2SiTeO4,2.084399999999999,-8.0086996003125,-3.2647732428125
mp-18219,Dy2SiSeO4,2.5743,-8.1491548459375,-3.405426772897135
mp-17834,La2SiSeO4,2.2089,-8.2776856671875,-3.4545496999804692
mp-17913,Tb2SiSeO4,2.5839,-8.157731625937501,-3.4091315291471362
mp-18542,Nd2SiTeO4,2.0477,-8.00992874125,-3.272833390208333
mp-18584,Ho2SiSeO4,2.5613,-8.14031934125,-3.401765284042968
mp-18610,Sm2SiSeO4,2.693,-8.1625191975,-3.393738472792969
mp-542663,Ce2SiTeO4,0.0,-8.236283165,-3.206987204583332
mp-542664,Ce2SiSeO4,0.0,-8.3821952628125,-3.308823604355468
mp-6055,Sm2SiTeO4,2.0793,-8.0021753396875,-3.2774703130208342
mp-1210817,MnAlSiO5,1.7544,-8.320165787812499,-2.936076515678879
mp-1304341,Li2FeSiO5,0.0,-7.018735057222222,-2.3017361685185183
mp-1078877,MgSi(HO2)2,5.1541999999999994,-6.5631867375,-2.3584411196875
mp-1217159,V2SiPb5O12,2.6668000000000003,-7.23111085175,-2.15451597275
mp-1176604,LiTiSiO4,0.0,-8.060170026071429,-3.057087607023809
mp-1176688,LiFeSiO4,1.6478000000000002,-7.583814883452381,-2.498656865357143
mp-766121,LiVSiO4,2.097699999999999,-8.005994077261905,-2.833138222023809
mp-772109,LiSiBiO4,3.1649,-6.926556992857143,-2.495682817619048
mp-1201400,BaSi(S2O7)3,5.2901,-6.716693830646552,-2.024223779612069
mp-541431,Ca2SiH2O5,4.8219,-6.9118130235,-2.81514745425
mp-559711,Rb2Na2SiO4,3.2566,-5.647912769166666,-2.329949241139846
mp-703468,Na3SiH5O6,4.0506,-5.64276815025,-1.901829577609195
mp-707571,Na3SiH11O9,4.4866,-5.467893306770833,-1.66251996355783
mp-721564,Na3SiH5O6,4.1088000000000005,-5.63456930125,-1.8936307286091951
mp-759064,LiFeSiO4,1.830299999999999,-7.540769135,-2.455611116904761
mp-775156,LiMnSiO4,1.311099999999999,-7.767054530535715,-2.583040215002053
mp-1192378,AlTlSiO4,3.494699999999999,-7.376407962857143,-2.900092249047619
mp-1192825,MgFeSiO4,3.3169,-7.8002926835714295,-2.754913644285714
mp-1192819,MgFeSiO4,4.0185,-7.803350166428571,-2.757971127142857
mp-1204505,Na2InSiO5,0.41630000000000006,-6.102535449722222,-2.146120076880587
mp-1210608,MgMnSiO4,3.1310000000000002,-8.051557377142856,-2.9073220404187192
mp-1210331,Na2PrSiO5,0.5707000000000001,-6.987505033333333,-2.804834358825031
mp-1210117,NaLuSiO4,4.396599999999999,-7.8351837657142855,-3.395102296863711
mp-1210123,NaLaSiO4,4.262199999999999,-7.805282235357142,-3.306012244839901
mp-1213991,CaMnSiO4,2.5993999999999993,-8.252435313928572,-3.054609996490149
mp-1214083,Ca3SiO4F,0.0,-6.9605384372222225,-3.277447985555556
mp-1222016,MgSiNiO4,4.3779,-7.310407446785715,-2.649297626071429
mp-1221755,MnFeSiO4,2.330699999999999,-8.555606092142856,-2.434292013275862
mp-1232382,LiSiPO5,4.9408,-7.4933407475000005,-2.8071508166220243
mp-1222111,MgCoSiO4,2.598499999999999,-7.487816843928572,-2.633381303214286
mp-15066,LiTmSiO4,4.8668,-7.955827441071428,-3.440315098690477
mp-17891,NaYSiO4,4.2796,-8.070256109285713,-3.3462597766256152
mp-554429,Mn3Si(O2F)2,2.6069,-8.374279545250001,-2.7211882776293113
mp-557293,Li2CdSiO4,3.0934,-6.2822681840625,-2.532890937395833
mp-558458,Mg3Si(O2F)2,5.1736,-6.802414424,-3.408786739499999
mp-561457,CsAlSiO4,4.4582000000000015,-7.453595472142857,-3.186350407807882
mp-6224,LiScSiO4,4.612299999999999,-8.153787888571427,-3.373994456904761
mp-6280,Al2Si(O2F)2,5.6953,-7.589334439722222,-3.5297768330555552
mp-6493,CaMgSiO4,4.6294,-7.482815064642857,-3.360924786785713
mp-649595,CaMgSiO4,4.7126,-7.425002907857142,-3.303112629999999
mp-669421,AlTlSiO4,2.7897,-6.996141593571428,-2.519825879761905
mp-7205,LiInSiO4,3.028699999999999,-6.922280638214285,-2.652957972499999
mp-724857,Na2LaSiO5,0.0,-7.034209783888889,-2.835924037528736
mp-753327,LiSiBiO4,3.455699999999999,-6.9561405207142855,-2.52526634547619
mp-753580,LiTiSiO4,0.0,-8.042395493928572,-3.039313074880952
mp-755753,LiMnSiO4,1.1486,-7.774059356428572,-2.590045040894911
mp-752501,LiSiBiO4,3.2155,-6.93553783892857,-2.504663663690475
mp-752951,LiCoSiO4,0.7818,-7.176316964642858,-2.2821024451190492
mp-753374,LiVSiO4,2.210899999999999,-8.002994283571429,-2.830138428333332
mp-758188,Li2CrSiO4,1.369,-7.4336081028125,-2.597601196145834
mp-758209,Li2FeSiO4,3.3425000000000002,-7.24619922875,-2.558070604583333
mp-758758,Li2CuSiO4,0.0,-6.474817093125,-2.333040286458334
mp-758311,Li2CuSiO4,0.0,-6.485415724375,-2.343638917708333
mp-758638,Li2CoSiO4,2.7987,-7.025665035625001,-2.504611972708334
mp-759575,Li2FeSiO4,3.3842,-7.2512293378125,-2.563100713645833
mp-759212,LiCoSiO4,0.7348999999999991,-7.200268589285715,-2.306054069761906
mp-759726,Li2MnSiO4,3.350099999999999,-7.464526702812501,-2.689898818387213
mp-766405,Li2VSiO4,1.893599999999999,-7.38176116375,-2.616896932083333
mp-767447,LiVSiO4,2.2824,-7.961028358571428,-2.788172503333333
mp-766923,LiVSiO4,1.884199999999999,-8.00709369,-2.834237834761904
mp-763610,LiCrSiO4,2.5874,-8.020326447857142,-2.766164678333333
mp-766583,Li2SiNiO4,3.3568,-6.8009670006250005,-2.449073942708334
mp-766701,Li2SiNiO4,3.2437,-6.7958896046875,-2.443996546770833
mp-760516,Li2CoSiO4,2.7554,-7.01756573,-2.496512667083333
mp-767620,LiVSiO4,1.4564,-7.924888071785714,-2.752032216547618
mp-780666,Li2MnSiO4,2.882399999999999,-7.4539373384375,-2.679309454012212
mp-780533,LiMnSiO4,0.9906,-7.803638455357143,-2.619624139823482
mp-849735,LiCrSiO4,2.9589,-7.977574782857142,-2.723413013333333
mp-863368,LiFeSiO4,2.3093999999999992,-7.612378451071429,-2.52722043297619
mp-861542,LiFeSiO4,1.9897,-7.583408539642856,-2.498250521547618
mp-559123,YSiNO2,4.0731,-8.981233866,-2.947512009
mp-753349,LiTiSiO4,0.0,-8.058272155714286,-3.055189736666666
mp-754456,NaVSiO4,0.0,-7.823558115,-2.731731129482759
mp-762643,LiFeSiO4,1.656899999999999,-7.591353782142856,-2.506195764047618
mp-758471,LiCoSiO4,0.9231,-7.205689264642857,-2.311474745119048
mp-753702,LiVSiO4,2.1026,-8.011874630357143,-2.8390187751190483
mp-780325,LiMnSiO4,0.032799999999999004,-7.7980484571428565,-2.614034141609195
mp-555990,Er2SiSO4,2.811400000000001,-8.271742969375,-3.460373064687498
mp-752511,Li2Co2SiO6,0.7258999999999991,-6.855444233181817,-2.019283939242423
mp-707195,KSiHO3,5.0573999999999995,-6.6529839356250005,-2.5203610678749993
mp-1257377,Mg14SiBiO16,0.0,-6.0886714290625,-2.610255534375
mp-763247,LiVSiO5,1.9025999999999992,-7.817260984374999,-2.672516985416666
mp-1213128,MnAl2SiO5,0.344599999999999,-7.746253689166666,-2.5442214661590032
mp-1215154,Al2FeSiO5,0.0,-7.545671914583333,-2.420527922916666
mp-1213240,MgAl2SiO5,0.004299999999999,-7.060224832777778,-2.695030973888889
mp-1219828,Rb7VSiO8,2.4409,-5.850690061617647,-2.265004729411764
mp-1222541,LiFeSiO4,2.9616,-7.60049688,-2.515338861904761
mp-6391,Na2ZnSiO4,3.174299999999999,-6.132673474374999,-2.487630072219827
mp-6406,Na2MgSiO4,3.7488,-6.490152633125,-2.7987684303448273
mp-556544,LiAlSiO4,5.2076,-7.598341402499999,-3.18810415297619
mp-753732,Li2CoSiO4,2.996299999999999,-7.03219662625,-2.511143563333333
mp-752913,Li2FeSiO4,3.288799999999999,-7.247205491874999,-2.559076867708333
mp-753369,Li2VSiO4,1.7523,-7.358228755,-2.593364523333333
mp-753791,LiVSiO4,2.699,-7.9572800089285725,-2.784424153690476
mp-754842,LiFeSiO4,2.985,-7.600593702857142,-2.515435684761904
mp-756984,LiFeSiO4,2.651799999999999,-7.561968632142856,-2.476810614047618
mp-757123,LiVSiO4,2.2484,-7.928640023571428,-2.7557841683333333
mp-757159,LiSiBiO4,3.2622,-6.879221238928571,-2.448347063690476
mp-758135,LiCoSiO4,1.5102,-7.222395453928572,-2.328180934404763
mp-758498,Li2CuSiO4,0.0,-6.467503155625,-2.325726348958333
mp-758506,LiFeSiO4,3.0362,-7.612283996071428,-2.527125977976188
mp-758968,LiFeSiO4,2.7318,-7.563444084642858,-2.478286066547618
mp-758939,LiFeSiO4,2.889199999999999,-7.591684542142857,-2.506526524047617
mp-763246,LiCoSiO4,1.4219,-7.187982026428572,-2.293767506904763
mp-763253,LiCoSiO4,1.4973,-7.199885704285714,-2.305671184761905
mp-763256,LiCoSiO4,1.607899999999999,-7.219056245,-2.324841725476191
mp-764355,LiFeSiO4,2.9734,-7.568674140714285,-2.483516122619046
mp-763255,LiCoSiO4,1.3823,-7.221517295714286,-2.327302776190477
mp-762870,Li2CrSiO4,1.7738,-7.38050809875,-2.544501192083333
mp-766710,Li2SiNiO4,3.4164,-6.797645800625,-2.445752742708333
mp-8070,Li2BeSiO4,6.0565,-7.066582591249999,-2.969780010208333
mp-805388,LiFeSiO4,0.5118,-6.658904868571428,-1.573746850476189
mp-849781,LiCoSiO4,1.0784,-7.188419758928572,-2.294205239404763
mp-831245,Li2MnSiO4,2.9566,-7.4593736234375,-2.684745739012212
mp-9359,ZnSi(AgO2)2,0.607499999999999,-5.7845601774999995,-1.764212550416665
mp-23994,U2Si(H2O5)2,1.896799999999999,-8.042277284705882,-2.685311763823528
mp-758734,Li2Cr2SiO6,2.8542,-7.879670010000001,-2.585395034242425
mp-722977,Na2Si(H3O2)6,4.8073,-5.420860297196969,-1.52397279584117
mp-1303469,Li2FeSiO5,0.0,-7.01826845,-2.301269561296296
mp-753095,LiMnSiO4,0.9586999999999991,-7.751304426428571,-2.56729011089491
mp-753223,LiVSiO4,1.755199999999999,-7.947370903928571,-2.774515048690475
mp-753086,LiCrSiO4,2.1239,-7.978831104999999,-2.72466933547619
mp-753436,LiCrSiO4,3.1874000000000002,-7.9839340835714285,-2.729772314047619
mp-753305,LiTiSiO4,0.0,-8.050644356428572,-3.047561937380952
mp-756430,LiFeSiO4,1.407699999999999,-7.549764607857142,-2.464606589761903
mp-755125,LiMnSiO4,0.0,-7.756978042142857,-2.572963726609196
mp-753644,LiVSiO4,0.862599999999999,-7.9730563675,-2.8002005122619043
mp-759327,LiCoSiO4,0.5121,-7.150081989285715,-2.255867469761905
mp-761324,LiSiNiO4,0.273099999999999,-6.936011477857143,-2.235122678333333
mp-556364,Ca2SiCl2O3,5.1049,-6.687403240625001,-3.190218975
mp-1020703,SiGeN2O,3.4637000000000002,-7.697822954,-1.363250478
mp-550751,BaBeSiO4,4.6114,-7.73540785142857,-3.3246150149999982
mp-752925,LiFeSiO4,2.6281,-7.554729999999999,-2.4695719819047612
mp-753343,LiVSiO4,2.6931000000000003,-7.928219961428572,-2.755364106190476
mp-8874,LiSiBO4,6.4308,-7.801681372857142,-2.972327560357141
mp-758521,LiCoSiO4,1.3135,-7.207063865714287,-2.312849346190477
mp-621926,Na2TiSiO5,3.190699999999999,-7.441270604305554,-2.91415320109355
mp-17357,NaSmSiO4,4.2786,-7.758551963571428,-3.290342111625615
mp-18515,NaGdSiO4,0.0,-9.092722153214286,-3.2877214291256163
mp-555322,Eu2SiCl2O3,0.642799999999999,-8.724826341875,-3.1570140675
mp-557304,Sr2SiCl2O3,5.1218,-6.6524770271875,-3.233585709062501
mp-1199165,SiH12(CO)4,4.7372,-5.488026183333334,-0.589272788809523
mp-559904,NaLi3SiO4,4.5993,-6.2156578225,-2.628363219319923
mp-758844,Li3CuSiO4,0.8401000000000001,-6.2009040877777775,-2.307222163333333
mp-1019587,CaAl2SiO6,4.596000000000001,-7.8551144885,-3.3941309285
mp-1046534,MgTiSiO5,3.0027,-8.20376555,-3.242379914166667
mp-1046694,MgVSiO5,1.2996,-7.98664058125,-2.87670318875
mp-1105632,CaZnSiO5,0.1781,-6.537165686875,-2.35835736875
mp-1181300,Mg8SiW9O49,0.141599999999999,-7.348165554626866,-1.713205264104477
mp-1293053,MgMnSiO5,0.9419000000000001,-7.7374584890625,-2.617757443803879
mp-1251416,MgFeSiO5,0.0,-7.4444988725,-2.4112970875
mp-2713150,Zr2Si(SO6)2,3.8,-8.0926032227451,-2.788310841274511
mp-2713158,SiSn2(SO6)2,2.198,-6.841180373137255,-2.070785494607843
mp-2713341,Hf2Si(SO6)2,4.5141,-8.33060642137255,-2.860491875196079