Material_ID,Formula,Band_Gap,Energy_per_Atom,Formation_Energy_per_Atom
mp-1043877,CaFe(GeO3)2,1.8711000000000002,-7.26243887225,-2.32149458925
mp-1043811,ZnFe(GeO3)2,1.2433,-6.8033103795,-1.9369517235
mp-1042820,ZnFeAs2O7,1.3387,-6.585317287500001,-1.702977567500001
mp-1043530,MgFe(GeO3)2,1.6517,-7.1313536425,-2.227922345999999
mp-1042809,MgFeAs2O7,1.911499999999999,-6.9009039343181815,-1.9848618138636351
mp-1044379,CaFeBiO5,0.716399999999999,-6.831466843125001,-1.9432842900000011
mp-1044380,MgFeBiO5,0.5377000000000001,-6.6591293296875005,-1.8178380096875002
mp-1044413,ZnFeBiO5,0.1409,-6.2629003971875,-1.4679498778125
mp-1048533,CaFeP2O7,4.1038,-7.865438459318182,-2.779775261525973
mp-1048270,ZnFeP2O7,3.361999999999999,-7.4119165479545455,-2.394058465616882
mp-1101512,LiFeP2O7,2.6064,-7.588849859318182,-2.511975480919912
mp-1048269,MgFeP2O7,3.9652000000000003,-7.497507049772727,-2.445946566980518
mp-1105304,Ca2FeOsO6,0.0,-7.669243925000001,-2.3296084820000003
mp-1105179,Mn2FeReO6,0.0,-8.789148201,-1.896154997836208
mp-1176703,LiFePO4,3.4391,-7.492838386428572,-2.409086726139455
mp-1177958,Li2FeBO4,2.777999999999999,-7.099165641562499,-2.254277799791666
mp-1179238,ZnFe(SO8)2,0.0047,-5.278780795125,-0.420087793375
mp-1182041,FeSClO10,0.0,-5.291546077307692,-0.373351655192307
mp-1189105,Mn2FeSbO6,1.298899999999999,-7.962187751,-1.901105844586207
mp-1190442,FeSeO3F,1.4261,-6.479261696249999,-1.691983683307289
mp-1193501,Li2Fe(SO4)2,4.2848,-6.727195812307692,-2.10040549551282
mp-1194745,FeB12(HO6)4,0.016599999999999,-7.627171534024389,-2.238038550243901
mp-1195316,SmFeGe2O7,1.1254,-7.651550511818181,-2.46333323090909
mp-1195843,FeH8SO8,4.0183,-5.868475187222222,-1.459952946805555
mp-1197187,Zn2Fe(PO6)2,0.0,-6.200849210294117,-1.42461464907563
mp-1198559,FeH14SO11,4.3717,-5.577663922592592,-1.334394219814814
mp-1199199,Rb3FeMo4O15,0.0,-7.546045060978261,-1.936756411304348
mp-1199758,FeH8N3O13,2.3425000000000002,-6.106171227699999,-1.107384066899999
mp-1199975,Cs3FeMo4O15,2.3633,-7.598601377934783,-1.998776619846327
mp-1200031,ZnFe(SO8)2,0.0,-5.256300242,-0.39760724025000005
mp-1201019,FeTe3ClO7,2.2711,-6.040068155208334,-1.5080507614583332
mp-1200863,FeP2NO7,0.1441,-7.242492999318181,-1.5811318137987
mp-1200792,FeP4(C2O5)2,3.2042,-7.480681565526315,-1.347724337556391
mp-1201424,FeTe3BrO7,1.0909,-5.991002645000001,-1.476618273333333
mp-1202376,FeAgP2O7,1.8448,-7.354706272727273,-2.192921456904761
mp-1202981,FeC7(O2F)2,2.4885,-7.549487339285713,-0.643042451607143
mp-1203662,FeH2(CO3)2,0.013600000000000001,-6.6205479415909085,-0.8564160231818171
mp-1203682,Cr2FeNO8,0.0,-7.200333023333333,-0.892159528749999
mp-1204162,Ba2YFeO5,2.8847,-7.766158482222222,-2.926506524999999
mp-1205448,FeP2(H4O5)2,4.3922,-6.372844496190476,-1.804182123775509
mp-1205279,K3Fe(C2O5)3,0.172299999999999,-6.9101288079,-1.25190727157
mp-1207884,ZnFePO5,1.9220000000000002,-7.168608741015626,-2.182978319720983
mp-1210320,Na6Fe(SO4)4,4.276,-6.292462617222221,-2.135382608639846
mp-1210319,NdFeGe2O7,2.813,-7.650521262954545,-2.457798409545454
mp-1210951,Na2Fe(SO6)2,0.0,-5.848815637941176,-1.213185404868153
mp-1212751,FeP2(PbO5)2,0.0,-6.992304560333334,-1.9119130636190471
mp-1212769,FeP(HO2)2,1.501199999999999,-6.258550559375,-1.200091605267856
mp-1213269,EuFeGe2O7,0.0,-7.962684702499999,-2.268146896136363
mp-1213353,FeH4SO4,3.762,-5.50663001575,-0.9085409604999991
mp-1213516,FeS2(NO7)2,0.0,-5.948813177631579,-0.5438263405263151
mp-1213365,FeCu2(SO4)2,0.0,-6.219030537307692,-1.25527348153846
mp-1214052,CaFe(MoO3)2,0.0,-8.216099568,-2.030630834
mp-1214121,Ca2NbFeO6,2.087099999999999,-8.168724696,-2.941695491999999
mp-1216130,Y2VFeO6,0.0,-9.0756971315,-3.0497095005
mp-1216171,Y2MnFeO6,0.8599000000000001,-8.934259292499998,-2.900460739293103
mp-1216153,Y2CrFeO6,0.42689999999999906,-9.097973602,-3.015071830999999
mp-1220528,Nd2VFeO6,0.7975000000000001,-8.684116455,-3.0063176375
mp-1219885,Pr2VFeO6,1.113499999999999,-8.6706007375,-2.987337114833333
mp-1217726,Tb2VFeO6,1.3995,-8.7310377885,-3.079295732833334
mp-1219215,Sm2VFeO6,1.2635,-8.7011155105,-3.033228952500001
mp-1223233,La2VFeO6,0.0,-8.77517566,-3.063804908000001
mp-1220540,Nd2FeNiO6,0.0,-7.961030592,-2.613608713499999
mp-1220545,Nd2MnFeO6,0.6502999999999991,-8.5445020045,-2.858892264793104
mp-1223373,La2FeCoO6,0.0,-8.216140477,-2.699818660000001
mp-1223369,La2CrFeO6,0.30970000000000003,-8.788144314499998,-3.019859422499999
mp-1224186,Ho2VFeO6,0.0,-8.7113696325,-3.067664408499999
mp-1223335,La2FeNiO6,0.0,-8.043325081999999,-2.662331269
mp-1223350,La2GaFeO6,2.307899999999999,-8.07832108725,-2.972531340000001
mp-1225231,Gd2VFeO6,1.6075,-10.5744010155,-3.0350072365
mp-1225428,Dy2VFeO6,1.3296000000000001,-8.7093010795,-3.061456642833332
mp-1225732,Er2VFeO6,1.4206,-8.712860383,-3.07514729
mp-1225359,FeCu2BO5,0.050899999999999,-6.972041256666667,-1.62897110712963
mp-1227428,Ce2VFeO6,0.0,-8.975850533000001,-3.064291228
mp-1232352,Dy2CrFeO6,2.224199999999999,-8.7483131715,-3.043554594833332
mp-1228210,Ca4Ga3FeO10,0.0,-6.868158464166667,-2.69836297263889
mp-1247745,Lu2FeCoO6,1.794599999999999,-8.2161449105,-2.782687023833334
mp-1275487,Ca2FeWO6,3.0012,-8.185221352000001,-2.672509629
mp-1289222,Mg2FeIrO6,0.0,-7.023169304000001,-1.997453159000001
mp-1291005,Mg2FeWO6,2.452099999999999,-7.8410146005,-2.4033288505
mp-1291802,Zn2FeWO6,2.260799999999999,-7.2121636745,-1.8486232055
mp-1301773,Zn2FeIrO6,0.0,-6.409677465499999,-1.458106601499999
mp-1306506,Ca2FeIrO6,0.0,-7.34262538925,-2.24188327125
mp-1520601,Pr2FeCuO6,0.38470000000000004,-7.7526101045,-2.5678164218333333
mp-1650136,Li4Fe(BO3)2,3.758499999999999,-6.986289415769231,-2.436115396666667
mp-16955,K2Li3FeO4,3.0917,-5.50264629025,-1.8775089627
mp-17881,SrFeP2O7,4.2064,-7.880924322954545,-2.823731287889609
mp-18396,RbFeP2O7,2.5011,-7.526615035454546,-2.534139638344155
mp-18774,NaFeP2O7,2.5246,-7.526900824545454,-2.501590272333182
mp-18783,Ca2FeMoO6,1.1193,-7.849526643999999,-2.548062932999999
mp-19266,Sr2FeWO6,1.768399999999999,-8.113092693,-2.663015328
mp-20113,CsFeP2O7,2.4057,-7.510900882272727,-2.525021530812807
mp-19980,LaFeGe2O7,2.7611,-7.690411445454544,-2.482428621818181
mp-21270,LiFe(GeO3)2,2.765399999999999,-7.0026945035,-2.071417921833332
mp-22208,PrFeGe2O7,2.7903000000000002,-7.648239922954545,-2.453033067196969
mp-20431,Ca2FeSbO6,1.4857,-7.17543798475,-2.54563916075
mp-24537,FeH8(BrO2)2,1.7042000000000002,-5.134622821666666,-1.221483500999999
mp-25219,K2Li2FeO4,0.403,-5.536910990277778,-1.721083167074073
mp-24776,FeH18(NO6)3,2.8406000000000002,-5.754082013125,-1.1625533023125
mp-25323,Na2Li2FeO4,0.274,-5.594125345555556,-1.731552843269476
mp-26255,Li2FeP2O7,3.8745000000000003,-7.368323158333333,-2.555444739246031
mp-26643,LiFeP2O7,2.6887,-7.5748089375,-2.497934559101731
mp-26773,Li3Fe(PO4)2,2.2702,-7.156880317142857,-2.541778538520408
mp-26805,Li3Fe(PO4)2,2.2066,-7.158220873571428,-2.5431190949489793
mp-26749,LiFeP2O7,2.5805,-7.566587464772727,-2.489713086374458
mp-26717,LiFeP2O7,2.1192,-7.564696952727272,-2.487822574329003
mp-31763,Ca2FeReO6,0.0,-8.016387851000001,-2.55467773025
mp-31890,Li4Fe(PO4)2,4.042,-7.051368299666666,-2.616678448507935
mp-31815,Li2Fe(PO4)2,0.0,-7.173104241923077,-2.349834854688644
mp-31760,Sr2TaFeO6,1.5015,-8.392360151,-3.051403054733333
mp-504184,LiFePO4,3.5516,-7.551917702857142,-2.468166042568026
mp-510524,FeH6(CO3)2,3.545,-6.420607751333334,-1.288199960833333
mp-510511,FeP(H2O3)2,2.636,-6.566961300833333,-1.804134090803571
mp-540231,Li2FeP2O7,4.2232,-7.364179242083334,-2.551300822996031
mp-541673,KFeP2O7,1.9052000000000002,-7.541400801818176,-2.535213072866876
mp-554007,FeTe2BrO5,1.8634,-6.024989946666667,-1.454613884814815
mp-555502,Pr5Ti4FeO17,1.7721,-9.022720662592592,-3.53588052728395
mp-556401,Ti2Fe(PO5)2,1.9465,-8.5641576065,-2.926053450230159
mp-557307,Nd5Ti4FeO17,1.7847,-9.03454242824074,-3.552762297716049
mp-558502,FeTeO3F,1.4996,-6.573041989583333,-1.8445315740277772
mp-558841,FeP2HO7,2.6776,-7.50928799090909,-2.297300560503246
mp-559166,Sr2UFeO6,1.121399999999999,-8.458690968,-3.175285625
mp-559874,FeTe2ClO5,2.1486,-6.094252299444444,-1.500365541481481
mp-560012,FeP2PbO7,3.9606,-7.653407121136363,-2.4125578151623372
mp-561267,KFePO4,3.3116,-7.412276485357142,-2.439603845627551
mp-600152,FeHC2O3,2.3764,-7.606249124642858,-1.153906031964286
mp-622785,FeSNO,1.5851000000000002,-6.66531164953125,-0.191656767656249
mp-687200,LiFe(PO3)5,0.0036000000000000003,-7.500087511818182,-2.423918112797619
mp-694075,FeI(NO)2,1.388199999999999,-6.291030621875,-0.196612067708333
mp-695816,LiFeP2O7,2.4269,-7.523091227272727,-2.446216848874458
mp-696780,FeP2(H4O5)2,4.2649,-6.268196672857143,-1.699534300442177
mp-697758,LiFeP2O7,2.5726,-7.569835744318182,-2.4929613659199132
mp-704251,LiFePO4,3.5691,-7.510600950595238,-2.426849290306122
mp-725073,FeH8(ClO2)2,2.1778,-5.186846749333333,-1.245495412
mp-728069,FeP2HO7,2.4132,-7.499889715,-2.2879022845941552
mp-733521,FeH8(ClO2)2,2.5945,-5.231650322999999,-1.290298985666666
mp-735042,FeP3(HO5)2,2.9572000000000003,-7.3307377687500015,-2.269088724151786
mp-743814,FeP2H2O9,0.0,-6.763552776428573,-1.719056334770409
mp-744930,FeH6SO6,1.4491,-5.880698297499999,-1.404473623214285
mp-752712,LiFeB2O5,2.064199999999999,-7.791430192222222,-2.405037676296296
mp-752663,Li2FeBO4,2.8536,-7.1124777553125,-2.267589913541666
mp-756421,LiFeBO3,3.473099999999999,-7.564939029583333,-2.2479025525
mp-756995,LiFePO5,0.0,-7.239399905,-2.172622076622024
mp-753697,LiFeBO3,2.948799999999999,-7.599557942916667,-2.282521465833333
mp-757187,Li2Fe(PO4)2,0.0,-7.227602877692307,-2.404333490457875
mp-757240,Li3Fe(PO4)2,2.4926999999999992,-7.127739889017858,-2.5126381103954083
mp-757255,LiFePO4,3.8361,-7.5027307975,-2.418979137210883
mp-757481,Li2FeP2O7,1.7603,-7.353293501458332,-2.5404150823710303
mp-757579,Li3Fe(PO4)2,1.9379,-7.100070570178572,-2.4849687915561223
mp-757609,Li2FeCO4,2.6885,-7.13681145,-1.9732643930208331
mp-757649,Li3Fe(PO4)2,1.7471,-7.097286598392857,-2.4821848197704073
mp-757653,LiFePO4,3.6826,-7.465036097232143,-2.381284436943026
mp-757940,Li2Fe(CO3)2,3.4432,-7.436469474999999,-1.9425636606060601
mp-757908,LiFeP2O7,2.3061,-7.559024361136363,-2.482149982738094
mp-758072,LiFeP2O7,2.5562,-7.5446651827272735,-2.467790804329004
mp-758117,LiFeCO4,2.2662,-7.483936669642857,-1.855443299761903
mp-758534,LiFe(PO3)4,2.5387,-7.530390029166666,-2.451702793716931
mp-758535,LiFeP2O7,2.4679,-7.546661796136363,-2.469787417738095
mp-758508,LiFe(CO3)2,1.474,-7.68907697625,-1.8366728670833332
mp-758561,LiFeP2O7,2.1111,-7.50589977340909,-2.429025395010821
mp-758566,LiFe(PO3)4,2.4002,-7.541044429861112,-2.462357194411376
mp-758609,Li2Fe(PO3)4,4.1614,-7.458203173684211,-2.546345641854637
mp-758790,LiFe(PO3)4,2.4819,-7.556233725694445,-2.477546490244709
mp-758771,LiFeP2O7,2.5909,-7.548309523863637,-2.4714351454653682
mp-758762,LiFeP2O7,2.2122,-7.505427754318182,-2.428553375919913
mp-758883,LiFe(PO3)4,2.2948,-7.558983058055555,-2.48029582260582
mp-759012,Li2Fe(PO3)4,3.7503,-7.420362434078947,-2.5085049022493733
mp-759362,LiFe(PO3)4,2.4753,-7.561012785833333,-2.482325550383597
mp-759605,Li2Fe(CO3)2,4.1307,-7.502317859090909,-2.00841204469697
mp-759815,Li2Fe(CO3)2,3.4797000000000002,-7.46729110409091,-1.97338528969697
mp-765153,Li5Fe(CO3)4,1.9253,-7.2392643302272734,-2.043590258712121
mp-765634,LiFePO4,3.7244,-7.478954400892857,-2.3952027406037413
mp-765635,LiFePO4,3.6821,-7.495592328571428,-2.411840668282312
mp-766461,Li2Fe(BO3)2,0.0,-7.328814107272728,-2.298412605909091
mp-765641,LiFePO4,3.410699999999999,-7.489271968749999,-2.405520308460883
mp-768236,LiFeB2O5,2.5385,-7.830943175833334,-2.4445506599074083
mp-770576,FeH12(SO7)2,0.0,-5.80422802051724,-1.433186928103447
mp-770764,Li2Fe(BO2)5,3.054,-7.931093876527778,-2.644180773888889
mp-770825,Li3Fe(BO3)2,2.5875,-7.243008513125001,-2.472730231319445
mp-770926,Li3Fe(BO3)2,2.1013,-7.174697595208333,-2.4044193134027783
mp-771016,Li2FeBO4,2.4266,-7.158465312187499,-2.313577470416666
mp-772223,Na3Fe(BO3)2,1.4589,-6.939000421041666,-2.310522661247605
mp-772286,LiFePO4,3.611799999999999,-7.494139057142857,-2.410387396853741
mp-772406,LiFePO4,3.1003,-7.505618085952381,-2.421866425663265
mp-772409,LiFePO4,2.596899999999999,-7.486503440476191,-2.4027517801870752
mp-772525,Li6Fe(BO3)3,2.0986,-6.883268268026316,-2.436248122368422
mp-772906,LiFePO4,3.544699999999999,-7.503914828571429,-2.420163168282312
mp-776601,Li3FeB8O15,3.195699999999999,-7.905895045185185,-2.652141746975308
mp-776600,LiFeB2O5,2.061099999999999,-7.799387908888889,-2.412995392962963
mp-776547,Li2Fe(BO3)2,0.1259,-7.276374246363637,-2.245972745
mp-778811,Li2Fe(BO3)2,0.0,-7.32886514,-2.2984636386363633
mp-779306,Li3Fe(BO3)2,2.1974,-7.172308980416666,-2.40203069861111
mp-779311,LiFeBO3,3.1622,-7.595114655833334,-2.27807817875
mp-783910,LiFeBO3,3.2382,-7.649134310520833,-2.3320978334375
mp-818232,KFe(SO6)2,0.0,-5.714153245,-0.8858006120156251
mp-818283,FeAs2PbO8,0.0008,-6.685368856458333,-1.593152074374999
mp-849623,Li2FeP2O7,3.9852,-7.375207069583333,-2.562328650496031
mp-859112,Li2FeP3O10,2.7898,-7.3925108075,-2.5166422094122023
mp-861176,Li2FePO5,1.626,-7.089725321944445,-2.373820267089947
mp-1177101,Li5FeOF5,4.4951,-5.495498007222222,-2.784509805277778
mp-775155,Li4FeOF5,2.973,-5.564617065151514,-2.780713832727273
mp-1047414,Zn2FeWO6,2.8349,-7.234742097500001,-1.8712016285000002
mp-1047202,Mg2FeWO6,2.943,-7.8737376910000005,-2.436051941000001
mp-1048318,Ca2FeWO6,3.263099999999999,-8.1628766805,-2.650164957499999
mp-1177983,Li2FeTeO6,0.0,-6.218141279,-1.706247392333333
mp-1078277,Mn2FeWO6,0.0,-8.946442011,-2.002447205586207
mp-1101277,Ti5Fe(PO4)6,0.0,-8.407008516944444,-2.873914445681216
mp-1217936,TaMn2FeO6,1.6284,-9.232690702,-2.39781616531954
mp-1217127,Ti2MnFeO6,0.0,-9.151362551,-2.84028389445977
mp-1221899,Mn2FeSbO6,1.339299999999999,-7.9734123630000004,-1.912330456586207
mp-1221840,Mn2NbFeO6,1.506,-8.943029638999999,-2.284717352586207
mp-1305316,LiFe(PO3)3,4.156099999999999,-7.602026085714286,-2.519382250161565
mp-550745,TiFe(BiO3)2,0.0,-7.561562804749999,-2.178228017083333
mp-551086,CrFe(BiO3)2,0.0,-7.382505711999999,-1.823415379
mp-585400,LiFePO4,3.4793000000000003,-7.552952743809524,-2.469201083520408
mp-752448,TiFe(PO4)2,0.27740000000000004,-8.32046847722222,-2.755456117440475
mp-752447,FeNi(PO4)2,0.0,-7.4777544080555565,-2.089021659662697
mp-757732,LiFe(PO3)3,3.5699,-7.570516837142857,-2.487873001590136
mp-758982,Li3Fe(PO4)2,2.5097,-7.12517283452381,-2.510071055901361
mp-770962,VFe(PO4)2,0.0,-8.162331597222222,-2.498284732996031
mp-768377,FeCu(PO4)2,0.0,-7.286469244166666,-2.037813996607142
mp-771947,Mn5Fe(PO4)6,0.0,-8.093147090277778,-2.384147008542009
mp-772167,CrFe(PO4)2,1.8346,-8.1336722225,-2.422196908273808
mp-772015,FeSn3(PO4)6,0.0,-7.353975662647059,-2.302721484789916
mp-772911,V3Fe(PO4)6,1.192,-7.972600559999999,-2.473611010231092
mp-773672,MnFe(PO4)2,0.0,-7.980295815277777,-2.309739849212506
mp-772648,VFe(PO4)2,0.0825,-8.123304989722222,-2.459258125496032
mp-772669,FeCo(PO4)2,0.10109999999999901,-7.655369478333333,-2.153863393273809
mp-773671,MnFe(PO4)2,0.0,-8.022123696666666,-2.351567730601395
mp-774347,Mn3Fe(PO4)6,0.0,-7.67994410117647,-2.174062561225006
mp-774425,FeSb3(PO4)6,1.9333,-7.407464066764706,-2.345672001995797
mp-775201,Cr3Fe(PO4)6,0.0,-7.808677185588236,-2.259469276995799
mp-774932,Li2FeWO6,0.0,-7.480431713,-1.987055392666666
mp-775436,Ti3Fe(PO4)6,0.0,-8.102012955294118,-2.707883469054623
mp-829947,V5Fe(PO4)6,0.0,-8.271679603055556,-2.573528024384922
mp-859878,Nb3Fe(PO4)6,2.640599999999999,-8.370244728823529,-2.78148468170168
mp-780106,FeNi(PO4)2,0.0,-7.517180702500001,-2.128447954107143
mp-850225,FeP6(WO8)3,2.0933,-8.321463604705883,-2.480630746701681
mp-1095445,CsFe(MoO4)2,2.5380000000000003,-7.911349324166667,-2.023600404137931
mp-1202597,Na3Fe(SO5)3,0.4824,-5.960412382121212,-1.4545179583320271
mp-560628,CsFe(SO4)2,2.3514,-6.768817577708333,-1.99895041476293
mp-563010,RbFe(MoO4)2,2.5664,-7.908310373333333,-2.014515078125001
mp-859109,Li3Fe(PO4)2,2.2931,-7.127704057619047,-2.512602278996598
mp-757095,Li2Fe(PO4)2,0.0,-7.214005091538461,-2.390735704304028
mp-1078209,LiLa2FeO6,0.754699999999999,-7.755797190499999,-2.761924758833332
mp-1177982,Li2Fe(BO3)2,0.0,-7.344539227272727,-2.31413772590909
mp-1196389,Ti4Fe(PO4)6,1.5086,-8.418937063714287,-2.953340076605443
mp-1196866,Na3Fe(SO4)3,0.0,-6.482607067368421,-2.046512630086206
mp-1196505,Na9Fe(MoO4)6,2.9776,-7.206857751875001,-2.097595926935345
mp-1200394,FeP3(HO)6,2.8556,-6.0621000909375,-1.388649687901786
mp-1222048,MgFe(CO3)2,4.2415,-7.941825586,-2.117266762
mp-1274023,La2ZnFeO6,0.0,-7.667136865000001,-2.738182359000001
mp-1295386,La2MgFeO6,0.0,-7.958540431,-2.9925132845
mp-1410863,CaLa2FeO6,1.7183000000000002,-7.979145001000001,-2.975604868
mp-753899,LiFe(CO3)2,2.1032,-7.7672925725,-1.914888463333333
mp-1043493,MgFe(GeO3)2,1.542399999999998,-7.13547580325,-2.23204450675
mp-1043513,CaFe(GeO3)2,1.6032000000000002,-7.283357312,-2.342413028999999
mp-1043588,ZnFe(GeO3)2,1.2894,-6.805081390250001,-1.938722734250001
mp-1045790,MgFe(PO3)4,4.3795,-7.725496636666666,-2.6622790040873
mp-1045812,CaFe(PO3)4,4.4626,-7.816200527222222,-2.7321423465873
mp-1046118,Mg2Ta2FeO8,3.667,-8.779329675,-3.006367800743589
mp-1046115,Ta2Zn2FeO8,3.4513,-8.30534638576923,-2.589419343051282
mp-1046246,Ca2Ta2FeO8,3.6611000000000002,-8.935901904230768,-3.105227743051282
mp-1046751,Nb2Zn2FeO8,2.411,-7.869772643076923,-2.425479831538461
mp-1047759,Ca2Nb2FeO8,3.1679,-8.498574188846153,-2.939534258846152
mp-1048464,Mg2Nb2FeO8,3.1238,-8.346908513461539,-2.845580870384615
mp-1101596,Li2FeP2O7,0.11519999999999901,-7.3471126189583345,-2.534234199871031
mp-1101516,LiFeP2O7,2.5628,-7.583921772045454,-2.507047393647185
mp-1101916,NaFe(SO)2,0.0,-5.401789331666666,-0.737725476063217
mp-1101655,NaFeBO3,1.9134000000000002,-7.429187645416667,-2.20668484967433
mp-1101522,LiFeP2O7,1.137,-7.432573421818182,-2.355699043419912
mp-1103970,FeSO4F,2.0446,-6.887173914642857,-1.98516289
mp-1177898,Li2MnFeO4,1.209299999999999,-7.19201001125,-2.036794229324712
mp-1177967,Li2FeCoO4,0.527899999999999,-6.617878065625001,-1.716237105208334
mp-1177968,Li2FeSnO4,1.7179000000000002,-6.5297924671875,-2.018632114895833
mp-1179891,NaFe(SO)2,0.0,-5.386194229166667,-0.7221303735632181
mp-1179885,NaFe(SO)2,0.0,-5.502471261666667,-0.8384074060632181
mp-1181219,K3FeMo4O15,2.5345,-7.692935601630435,-2.063972736706521
mp-1182787,Na3FeC6O17,0.1164,-6.65632555287037,-1.027343568208811
mp-1188169,LiFe(GeO3)2,2.0351,-6.995185080499999,-2.063908498833332
mp-1188668,FePH2O5,2.0601,-7.034557125,-1.98837572079365
mp-1190874,FeBi2PO8,0.0,-6.868874547083333,-1.7647702641369052
mp-1190931,NaFe(MoO4)2,2.1186,-7.899226770000001,-1.9753325826149442
mp-1192650,V2FeAg3O8,1.6188,-6.926714364642857,-1.5874047628571422
mp-1193386,NaCr2FeO10,0.030399999999999,-6.821188991785713,-1.207085636169949
mp-1198416,NaFe(SO7)2,0.0,-5.584089218333334,-0.730760596465517
mp-1199823,Na3FeC6O17,0.663999999999999,-6.534581773240741,-0.9055997885791821
mp-1203060,Sr2Fe(PO4)3,0.0,-7.52637866138889,-2.666554771051587
mp-1203859,FeB10(H13O4)2,4.3224,-5.218190045777778,-0.7043688376481481
mp-1211370,NpFe(OF2)3,0.0,-6.560052145909091,-2.219615949886363
mp-1212734,FeH2(CO2)2,0.0,-6.758998225,-0.813494992499999
mp-1213406,CsFe(OF2)2,0.0,-4.750779789375001,-1.384613503081897
mp-1223010,LaFeTeO6,2.512399999999999,-7.308507092777777,-2.171051510740739
mp-1272506,Ba2FeWO6,2.506199999999999,-8.135210037,-2.639823302
mp-1288978,Ba2FeMoO6,0.9037000000000001,-7.785249331,-2.5011106080000003
mp-1290397,Li2TiFeO4,1.3979,-7.5590910790625,-2.5621907065625003
mp-1284679,Li2FeCo3O8,0.7058,-6.795725873571428,-1.562025506190476
mp-1288525,Ba2FeMoO6,0.7715000000000001,-7.7851213155,-2.500982592499999
mp-1304790,Li2FeCo3O8,0.49549999999999905,-6.778342417857142,-1.54464205047619
mp-1306952,LiNbFeO4,1.356299999999999,-8.194924529642856,-2.4417683672619033
mp-1306620,LiNbFeO4,1.907,-8.207819640357142,-2.4546634779761902