Material_ID,Formula,Band_Gap,Energy_per_Atom,Formation_Energy_per_Atom
mp-2713730,AlGa(SO4)3,4.409,-6.748756169803922,-2.127327780686276
mp-2713743,ScAl(SO4)3,4.274199999999999,-7.25673441509804,-2.44093113877451
mp-2713959,LaAl(SO4)3,4.566000000000001,-7.179178110588237,-2.445519657794118
mp-2713858,YAl(SO4)3,5.0684,-7.285087254313725,-2.458894425343137
mp-2713949,AlIn(SO4)3,3.8371,-6.713663770588236,-2.108054339068628
mp-669367,KAl(SO4)2,5.4996,-6.7075557325,-2.312776338520833
mp-572149,Cs2Al(NO3)5,2.917,-6.62519045594203,-1.343784596346828
mp-1221961,MgScAlO4,4.243,-7.988267497142857,-3.488216215714285
mp-1228995,AlInCuO4,0.0,-6.442549047142856,-2.100291866666666
mp-1228843,AlSb3Pb4O13,1.336,-6.518161946190476,-1.9797495226190471
mp-1199988,AlPb3SO11,0.0,-6.063344288125,-1.472753809218749
mp-1215165,AlFe3(SO7)6,0.022000000000000002,-5.532700730865385,-0.49808228711538405
mp-770562,Li6AlCrO6,2.999,-6.26018265642857,-2.3644736185714272
mp-777878,Li6AlFeO6,2.6897,-6.055349944464285,-2.244142782321428
mp-1209248,RbAl(MoO4)2,3.8624,-7.873398513333334,-2.373306999791667
mp-1222590,Li3Al(CoO3)2,0.8599000000000001,-6.598017772499999,-2.145772447499999
mp-18733,AlTl(MoO4)2,3.8702,-7.819211576666667,-2.203208559444446
mp-19352,KAl(MoO4)2,3.8895,-7.882274836666667,-2.369613685604167
mp-2912047,RbAl(SO4)2,6.5783000000000005,-9.101703885000001,-2.061277153072916
mp-505784,CsAl(MoO4)2,3.8773,-7.8790249658333344,-2.3849798274712652
mp-7645,KAl(SO4)2,5.540900000000001,-6.719405622499998,-2.324626228520831
mp-1095623,AlHg3(OF3)2,0.0,-4.241006228333333,-2.069870544791668
mp-1222534,Li4AlNi3O8,0.0,-6.14593044625,-1.876845110208333
mp-1222628,Li5Al(Co2O5)2,0.0,-6.464759763000001,-1.899586408333334
mp-1226182,Cs2Al(TeO4)3,0.0,-5.9674681849999995,-1.835969256628351
mp-770341,Li4AlCr3O8,3.3064,-7.5631480799999995,-2.567891970833333
mp-972937,ScAlCO,0.36949999999999905,-7.93158851,-1.867920651875
mp-23743,AlH12(ClO2)3,5.3984,-5.099670173409091,-1.475989831363636
mp-651024,KAlGeO4,3.9375,-6.859141426369048,-2.674596079547619
mp-754647,LiAlVO4,1.7459,-7.691114158095238,-2.758221474285714
mp-1048108,BaTi4AlO7,0.27640000000000003,-8.469822863461538,-2.940419334871794
mp-1048141,BaAlCu4O7,0.0,-5.990086870384616,-1.628771140769231
mp-1048397,BaAlNi4O7,0.4242,-6.570410113076923,-1.6918851496153842
mp-1048423,BaAlW4O7,0.0,-8.511509952692307,-1.4243715892307671
mp-1048359,BaAlFe4O7,0.8155000000000001,-7.680723143846155,-1.974541401923077
mp-1048544,BaAlCr4O7,0.0,-8.17781175,-2.107621928076923
mp-1048345,BaAlV4O7,0.400999999999999,-8.198065510384616,-2.30299611923077
mp-1048159,BaAlSn4O7,0.0,-6.315702717307692,-1.98196693076923
mp-1048382,BaAlCo4O7,0.187699999999999,-7.195333661538462,-1.900414839615385
mp-1048458,BaMn4AlO7,0.0,-8.204802284615385,-2.285699286671086
mp-1080747,ScAlCO,1.216699999999999,-7.947113042500001,-1.8834451843750002
mp-16934,BaLaAlO4,4.4355,-7.858769914642857,-3.516998215357143
mp-1663521,LiAlCrO4,1.434799999999999,-7.614045663928572,-2.599847065833333
mp-559984,Rb8AlAu3O4,1.4024,-3.886092938281249,-1.310884286406249
mp-556282,Ba2AlInO5,2.0183,-6.771036568055556,-2.872980514907408
mp-1181876,LaAl(NO4)6,0.0,-6.22359869875,-0.6779014010937501
mp-1041771,AlTe(WO4)2,0.07880000000000001,-8.104272149166666,-2.071869630555555
mp-1045892,AlCu3(WO3)4,0.0,-7.9132354225,-1.5506729815
mp-1047301,AlV(WO4)2,0.0,-8.858498611666667,-2.331046078333333
mp-1047109,AlCu(WO4)2,1.173999999999999,-8.243211668333332,-2.131150751666666
mp-1047169,AlAg(WO4)2,1.5724,-8.0460901675,-2.038718333472221
mp-1047448,AlNi(WO4)2,1.3131,-8.3180943375,-2.065955919999999
mp-1102410,Ca2AlClO8,0.0,-5.29461221,-1.195528340833333
mp-1176812,LiAlFeO3,2.2244,-7.288745560833333,-2.460678407222222
mp-1177725,Li3Al(FeO3)2,2.1557,-6.956387804999999,-2.281375065
mp-1182082,CaAl(OF2)2,0.252,-5.727695456875,-2.814882054374999
mp-1191319,Na2Al(P2O7)2,0.23440000000000003,-7.11938018952381,-2.483077067682382
mp-1198052,AlP2H2O9,0.0,-6.74079178952381,-2.03375573215136
mp-1211159,LiAlPO5,0.290799999999999,-7.204954975625,-2.728732819747024
mp-1214299,CaAlFe3O7,1.8298,-7.8053367890625,-2.322256257812499
mp-1229104,AlH15(OF)6,6.1309000000000005,-5.212114647857143,-1.789116337455357
mp-1254079,MnAl(WO4)2,1.3422,-8.919735756666666,-2.385774121494252
mp-1252502,AlCo(WO4)2,1.618999999999998,-8.619015699166667,-2.254103944999999
mp-1276282,Li2AlCoO4,0.0,-6.6646256078125,-2.353540319895833
mp-1330351,Li4AlCr3O8,1.280599999999999,-6.498864791562499,-1.503608682395833
mp-1392021,AlTe(WO4)2,0.0,-6.808664939166667,-0.776262420555555
mp-1581389,AlCr(WO4)2,1.8873000000000002,-9.0107165775,-2.435835594166667
mp-19209,LiAl(MoO4)2,3.6252,-7.9287864004166675,-2.351329154027778
mp-554344,Li3Al(BO3)2,4.6992,-7.141043611666666,-2.7644691115277773
mp-554967,Li3Al(BO3)2,4.8643,-7.213196462916667,-2.836621962777778
mp-556418,AlSCl3O2,3.9643,-5.163916511428572,-1.831704253214285
mp-556630,RbAlAs2O7,3.0281,-6.6410095718181825,-2.21354757159091
mp-6097,Li3Al(BO3)2,4.8248,-7.224946381666666,-2.848371881527777
mp-695979,AlH18(BrO6)3,0.11760000000000001,-4.7858638545000005,-0.8150461189375
mp-754284,LiAlNiO3,3.021299999999999,-6.759921989166666,-2.380168923888888
mp-755509,LiMnAlO3,2.3003,-7.585854879999999,-2.642455379377394
mp-755500,Li4AlCr3O8,3.2285,-7.565865859687499,-2.570609750520833
mp-755460,Li2AlVO4,1.6904,-7.318629046041667,-2.763732589375
mp-755925,LiAlCoO3,2.2113,-7.027055183333332,-2.421755444722221
mp-756015,LiAlFeO3,2.4018,-7.33463478625,-2.5065676326388893
mp-768694,Li4AlCr3O8,3.1476,-7.559291841249999,-2.564035732083333
mp-768749,Li4AlCr3O8,3.205399999999999,-7.559659768125,-2.564403658958332
mp-768808,Li4AlCr3O8,3.219999999999999,-7.559410858125,-2.564154748958334
mp-768851,Li4AlCr3O8,3.3975,-7.559301608749999,-2.564045499583333
mp-770544,LiAlCrO3,2.1161,-7.631380538333334,-2.606142341388889
mp-803574,Li4AlCr3O8,0.0,-6.114075095,-1.118818985833333
mp-9230,KAlAs2O7,3.042799999999999,-6.659771052272728,-2.218596720204545
mp-1224633,K2AlB5O14,0.295899999999999,-6.805477699772727,-1.865626417969696
mp-755803,Li2AlFeO4,3.1985,-6.96895247625,-2.490791627083333
mp-756520,Li2AlCoO4,1.664699999999999,-6.6491657968750015,-2.338080508958334
mp-755427,Li2AlNiO4,1.8756,-6.3470481334375,-2.205122850520833
mp-755694,Li2AlVO4,2.2689,-7.1902732425,-2.635376785833333
mp-1045632,AlCu3(SnO3)4,0.0,-6.141214372999999,-1.568363606999998
mp-1045607,AlCu3(AgO3)4,0.0,-4.916305824,-0.5767818933333331
mp-1045633,AlCu3(SbO3)4,0.0,-5.978074315500001,-1.3813376725
mp-1045728,AlFe4(CuO4)3,0.0,-6.785890039,-1.320949402
mp-1045637,AlCu3(BiO3)4,0.0,-5.740428193,-1.191484936000001
mp-1045744,Mn4Al(CuO4)3,0.0,-7.1375950235,-1.534255570086208
mp-1045600,Ti4Al(CuO4)3,0.0,-7.8174856965,-2.467450898166666
mp-1045723,AlCo4(CuO4)3,0.0,-6.330553152999999,-1.132933414
mp-1045851,AlCu3(MoO3)4,0.0,-7.496265971,-1.556199553999999
mp-1045721,AlCr4(CuO4)3,0.0,-7.415439127500001,-1.7138932385000012
mp-1379838,AlV4(CuO4)3,0.0,-7.422391897,-1.834674288
mp-1181191,KAl(SO10)2,0.0,-5.294458943854166,-0.6230887443645821
mp-1180545,NaAl(SO10)2,0.0,-4.9210679796875,-0.24093315286997002
mp-1182920,AlS2NO20,0.0,-5.248267302083334,-0.27660926833333305
mp-1196384,KAl(SO10)2,0.055899999999999006,-4.854305075104167,-0.18293487561458302
mp-1205042,KAl(SO7)2,0.0751,-4.176477804305556,0.402695460013889
mp-1238525,AlS2NO20,0.0,-5.258514121145834,-0.286856087395833
mp-795584,RbAl(SO10)2,0.0,-4.877399355312501,-0.212313974583333
mp-699485,AlH12(NO5)3,3.3869,-5.929015269516129,-1.292827482258064
mp-14389,Na3AlP8O23,5.2656,-7.3975266285,-2.686165786108023
mp-1205594,Sr2TaAlO6,3.577,-8.353873973999999,-3.485361415733332
mp-1205947,Eu2TaAlO6,0.33940000000000003,-10.03051978,-3.442870456733334
mp-1206057,Sr2NbAlO6,2.8384,-8.058527036,-3.366576727999999
mp-1208835,Sr2AlSbO6,1.8987,-7.022184888,-2.927464959999999
mp-1518543,Sr2AlBiO6,0.0,-6.698920061999999,-2.628096826999999
mp-1048370,Ba2AlW3O7,0.0,-7.99331332,-1.755340748076923
mp-1220853,NaAlGeO4,3.0732,-6.778053596785713,-2.563458099125615
mp-1251093,Li2AlFeO4,3.1653000000000002,-6.9318817659375,-2.453720916770833
mp-770729,Li2AlFeO4,2.6087,-6.9104745103125005,-2.432313661145833
mp-772436,Li2AlFeO4,3.2161,-6.907335278281249,-2.429174429114582
mp-1576333,MnAl(WO4)2,1.9543,-8.923212509999999,-2.389250874827585
mp-2226774,MgAlSbO4,0.31620000000000004,-6.557115955714286,-2.371845797857143
mp-755524,Li2AlFeO4,3.141499999999999,-6.965539060625,-2.487378211458333
mp-754121,Li2AlCoO4,1.7943,-6.648457538750001,-2.337372250833334
mp-755737,Li2AlVO4,2.327599999999999,-7.254139349375,-2.699242892708334
mp-755669,Li2AlNiO4,1.488199999999999,-6.34146648875,-2.199541205833333
mp-1203322,AlP3H10O11,6.048999999999999,-6.1116398995,-1.7767906255571422
mp-1200100,KAlCO6,0.11219999999999901,-6.432370055833334,-1.566439269694445
mp-1204433,LiAlGeO5,0.2036,-6.4725541946875005,-2.095387747604167
mp-6765,Li3AlGeO5,4.196099999999999,-6.515963515,-2.632445784
mp-770691,Li3AlFeO5,0.24469999999999903,-6.5593623144999995,-2.291145247999999
mp-770522,Li2AlVO4,2.569,-7.25093597625,-2.696039519583333
mp-770586,Li3AlCrO5,2.0263,-6.92328763175,-2.536767939249999
mp-770733,Li2AlFeO4,3.1197,-6.9660134284375,-2.4878525792708333
mp-770357,Li2AlNiO4,1.8821999999999992,-6.3485020859375,-2.206576803020834
mp-770519,Li2AlVO4,2.3205,-7.252684787187499,-2.697788330520834
mp-770707,Li2AlFeO4,3.1427,-6.9669801725,-2.488819323333333
mp-770553,Li2AlCoO4,1.639299999999999,-6.6485746653125,-2.337489377395833
mp-1217055,TiAlFeO5,1.6263,-8.48871860875,-2.882356848541667
mp-1228412,Ba4Al(IrO5)2,0.0,-7.090703075,-2.468470486764705
mp-559759,CaAlBO4,4.6961,-7.925532934285714,-3.322331291309524
mp-1048236,Ba2AlMo3O8,0.0,-7.899738363571429,-2.2065837864285722
mp-1218881,Sr2AlV11O22,0.6374000000000001,-8.68205917638889,-2.6845997072222243
mp-2226391,MgAlSbO4,1.131,-6.462628479999999,-2.277358322142856
mp-2227439,MgAlCrO4,2.418199999999999,-7.646949332857143,-2.672529713571429
mp-1197321,K2AlB5O14,0.9031999999999991,-6.851571060227272,-1.9117197784242401
mp-1223704,KAlCl2O,4.278799999999999,-5.207511425,-2.50311299345
mp-555284,Ba2NdAlO5,3.691299999999999,-7.468719134444445,-3.3474437825
mp-1225829,CsTiAlO4,3.8816,-7.840107356428571,-3.219980293998358
mp-1251643,Ca2AlVO5,1.610399999999999,-7.794739939444445,-3.174685863333334
mp-1257214,Ca2AlFeO5,0.698199999999999,-7.473641041666667,-2.921796394444445
mp-1257498,Ca2AlNiO5,0.0,-6.9753754216666675,-2.7224068333333333
mp-1264781,Ca2AlCuO5,0.0,-6.754401091666667,-2.688202504444444
mp-1251156,Sr2AlCu3O7,0.0,-6.192322979615384,-2.033570744615384
mp-1261272,Ca2AlWO5,0.7542,-7.854590527777778,-2.804067100555555
mp-1261316,Ca2AlCrO5,2.4178,-7.805160106666666,-3.121868097222222
mp-1253743,Ca2TiAlO5,0.0,-7.851055561111112,-3.363047490925927
mp-1375904,Ca2AlAgO5,0.0,-6.425318083333334,-2.4987049396296293
mp-18907,Ca2MnAlO5,0.0,-7.654575983333334,-3.025843104770115
mp-1036504,CsMg14AlO16,0.0,-6.0532781678125,-2.720543489989223
mp-1036519,BaMg14AlO16,0.0,-6.1606394225,-2.796311076875
mp-1036557,Mg14TiAlO16,0.0,-6.458156328749999,-2.907061824479166
mp-1036470,HfMg14AlO16,0.0,-6.4565240571875,-2.84100152125
mp-1036532,NaMg14AlO16,4.059900000000001,-6.3318379890625,-2.985548835980603
mp-1036395,Mg14AlCdO16,0.0,-6.18919364,-2.8548329428125
mp-1036461,Mg14AlCO16,0.417099999999999,-6.3228498834375,-2.730093708046874
mp-1036399,Mg14AlBO16,0.7059999999999991,-6.3105149084375,-2.797423536848958
mp-1036469,Mg14AlBiO16,0.115999999999999,-6.163492746249999,-2.737568795312499
mp-1036525,Mg14NbAlO16,0.0,-6.4398244915625,-2.819798330312499
mp-1036505,SrMg14AlO16,0.0,-6.24872687375,-2.8914781171875
mp-1036537,LiMg14AlO16,4.285999999999999,-6.3879132065625,-3.023898988229166
mp-1036571,KMg14AlO16,2.1653000000000002,-6.23159779375,-2.891882111164062
mp-1036641,Mg14AlVO16,0.0,-6.483226003125,-2.8949935596875003
mp-1036610,Mg14AlZnO16,0.0,-6.240766499375,-2.8970391328125
mp-1036574,RbMg14AlO16,0.6901,-6.1543083540625,-2.8193062855468742
mp-1036618,Mg14AlNiO16,1.6296,-6.387083829374999,-2.9020941793749992
mp-1036646,Mg14AlSnO16,0.0,-6.211405358125,-2.78174585890625
mp-1036658,Mg14AlFeO16,0.17219999999999902,-6.456258082187499,-2.887209540624999
mp-1048162,Ba2AlV3O8,0.0,-7.8827580557142864,-2.567120058571429
mp-1036652,Mg14AlCuO16,0.6041000000000001,-6.3422123696875,-2.9097517825
mp-1036650,Mg14MnAlO16,0.0,-6.4819129525,-2.891239595872845
mp-1036690,YMg14AlO16,0.0,-6.383857420625,-2.876087932499999
mp-1045008,Ba2AlW3O7,0.0,-8.047450022307693,-1.8094774503846152
mp-1036619,Mg14AlCoO16,0.6949000000000001,-6.4355004396875,-2.9082207884375
mp-1048025,Ba2Ti3AlO7,0.0,-7.851415051538462,-2.781743605769231
mp-1048096,Ba2AlSn3O7,0.0,-6.114422240769231,-1.941501601538461
mp-1036688,CaMg14AlO16,0.0,-6.31602895,-2.9489935750000003
mp-1036586,Mg14AlCrO16,0.0,-6.5042442734375,-2.89822616125
mp-1048073,Ba2AlCu3O7,0.0,-6.052791247692308,-1.859185651153846
mp-1048319,Ba2Mn3AlO7,0.0,-7.634205567692307,-2.272259519907161
mp-1048330,Ba2AlCr3O7,0.0,-7.804206986923077,-2.328945821153846
mp-1048346,Ba2AlV3O7,0.0,-7.696546655384616,-2.352625812692308
mp-1048483,Ba2AlNi3O7,0.0,-6.421550376923077,-1.840037855
mp-1252662,Mg14AlCO16,0.0,-6.294095939062499,-2.701339763671874
mp-1222873,Li2Al(NiO2)3,0.0,-6.467032834166667,-1.917733031388889
mp-1228948,AlGa(PO4)2,4.8451,-7.61598167,-2.850289424732143
mp-1227987,BaAlGaO4,3.350099999999999,-7.084742908571428,-3.015529935357142
mp-1234205,MgAl(Bi3O5)4,0.0,-6.172030096176471,-1.730392517794118
mp-1234982,MgAl(Bi3O5)4,0.0,-6.154048007058824,-1.712410428676471
mp-1302787,Li2Al(NiO2)3,0.391899999999999,-6.46728749875,-1.9179876959722222
mp-1372050,Ca2AlCoO5,0.0,-7.197412905555556,-2.794079868333333
mp-547017,LiAlAs2O7,3.049699999999999,-6.72605842,-2.214197438484848
mp-1200491,KAlPO5,0.0,-7.06084283453125,-2.681814821642858
mp-1096865,AlFe2BO5,2.8114,-8.225662017777777,-2.4362381237962962
mp-1213112,ErAlGeO5,3.7548,-7.902584126875,-3.193068186875
mp-1210873,MnAlBiO5,0.269499999999999,-7.4760633115625,-2.283884504428879
mp-1214877,AlNi2BO5,3.621100000000001,-7.511861073611111,-2.320189297407406
mp-540905,YAlGeO5,3.821099999999999,-8.120733770625,-3.168546244374999
mp-21563,SrAlBO4,4.5234000000000005,-7.786395391249999,-3.227932575416666
mp-1223294,La3Al(FeO3)4,0.0,-8.257625744,-2.667165041750001
mp-1247677,Ca4Mn3AlO10,0.0,-7.6930421408333345,-2.763395958821839
mp-1247671,Ca2MnAlO5,0.5726,-7.5570797955555555,-2.928346916992336
mp-558137,AlBPbO4,2.940799999999999,-7.567267224107142,-2.720201696845237
mp-559987,LiAl(PO3)4,5.7440999999999995,-7.616500300555556,-2.800282252883598
mp-24045,AlP(H2O3)2,5.5969999999999995,-6.545641331666666,-2.176517903303571
mp-542678,AlAs(H2O3)2,3.8112,-6.162462823229166,-1.855451977604166
mp-1178049,Li2AlCoO4,1.7803,-6.6477763971875,-2.336691109270833
mp-1210454,NaAl(SO4)2,5.4247,-6.689880818958333,-2.277572170323275
mp-1214930,Ba5AlRu2O11,0.0786,-7.178381959999998,-2.635391082894735
mp-1227552,Ca2AlFeO5,1.7716999999999992,-7.456551114444445,-2.904706467222223
mp-20014,AlVMoO7,2.3841,-8.291184986000001,-2.4600990815
mp-21742,Ba5AlIr2O11,0.0,-7.050604516052632,-2.553505045263157
mp-559276,AlBPbO4,3.0805,-7.565112612857143,-2.718047085595238
mp-707218,Ba3AlHO4,4.0379,-6.392665744166667,-2.760497843194445
mp-756369,LiAlVO4,1.526199999999999,-7.724658896071429,-2.791766212261906
mp-770629,Li2AlFeO4,1.2449,-6.965339591249999,-2.4871787420833322
mp-770386,LiMnAlO4,1.7586,-7.482320181785714,-2.538269037680624
mp-770545,LiAlCrO4,0.6522,-7.608192002857143,-2.593993404761904
mp-770714,LiAlFeO4,0.0,-6.933720985714285,-2.088526139047619
mp-770726,Li9Al(CoO4)2,2.466999999999999,-5.808931805,-2.0701116495
mp-770680,Li9Mn2AlO8,2.3726000000000003,-6.138313068124999,-2.196633055418103
mp-770517,Li9Al(NiO4)2,2.9469000000000003,-5.6191375377499995,-2.01564538625
mp-770550,Li2AlCoO4,1.710999999999999,-6.6389598634375,-2.327874575520833
mp-8376,MgAlBO4,6.0077,-7.724764320714286,-3.175152658452381
mp-1105758,AlTl2OF5,0.0,-4.965042074444444,-2.4088484140740762
mp-1189074,Rb2AlOF5,0.8528000000000001,-5.121409589444444,-2.874313272222222
mp-1189152,AlCNO5,0.0,-6.503165825,-0.746625313437499
mp-1182863,AlTl2OF5,0.0,-5.018534588888889,-2.46234092851852
mp-1182891,AlCNO5,0.3063,-7.254858224999999,-1.4983177134375
mp-1211756,KAlCO5,0.0,-6.85602089125,-2.00034388246875
mp-731701,K2AlOF5,1.1958,-5.158363443888889,-2.877748093277777
mp-1222363,LiLa4AlO8,2.545000000000001,-8.235299434285714,-3.593712637380953
mp-556532,CaAlB3O7,5.376600000000001,-8.168084759166666,-3.132661587708333
mp-1229110,AlBi3Sb2O11,2.6904999999999992,-6.645054294117648,-2.050862982647059
mp-1228800,AlH12(OF)5,6.3213,-5.266843606739131,-1.840902737391304
mp-1578402,MnAl(WO4)2,1.720899999999999,-8.925636819166668,-2.391675183994253
mp-754923,Li2AlVO4,2.453699999999999,-7.261150356874999,-2.706253900208334
mp-756603,Li2AlNiO4,2.0236,-6.355361884375,-2.213436601458333
mp-756579,Li2AlCoO4,1.7187000000000001,-6.652910965625001,-2.341825677708334
mp-772267,Li2AlFeO4,3.1948,-6.97453882375,-2.496377974583333
mp-1189078,NaAlCO5,0.0,-6.845980205,-1.964009314234914
mp-1189240,MgAlO2F5,0.39589999999999903,-5.218879105555555,-2.458742468888888
mp-1222338,LiTiAlO4,2.4977,-7.990280663571428,-3.227161415952381
mp-1222041,MgAlFeO4,2.516,-7.505655108571427,-2.700239240714285
mp-1229097,AlCrFeO4,1.4767000000000001,-8.494336182142858,-2.542837820714286
mp-753631,LiAlVO4,1.7902,-7.741990541785713,-2.809097857976191
mp-1220885,NaTi3AlO8,2.5385,-8.584085057692308,-3.3258188501061
mp-1228598,Ba2ScAlO5,1.997199999999999,-7.666751297037037,-3.3716624259259262
mp-1235552,SrLiAlO3,3.0271,-6.642343855,-2.943875554722222
mp-1236207,LiAlAsO4,0.0,-6.533462345714285,-2.231110167261904
mp-1235027,LiAlAsO4,0.0,-6.539879134285714,-2.237526955833333
mp-772439,Li3AlFeO4,2.5029999999999992,-6.586940593194445,-2.394250630972222
mp-770591,Li3MnAlO4,0.9114000000000001,-6.727265600277779,-2.457687406714559
mp-771900,Li3AlCoO4,1.9572,-6.316999507777778,-2.272821155555556
mp-770491,Li3AlNiO4,2.4355,-6.141634359722222,-2.247820456388888
mp-1046989,Ca2AlMoO5,1.7716,-7.766855478888889,-2.951052065
mp-1046382,Sr2AlCu3O7,0.0,-6.198958335384615,-2.040206100384615
mp-1227101,CaTaAlO5,3.8447999999999993,-8.777707342500001,-3.482968807791668
mp-1258227,Ca2AlAgO5,0.0,-6.432084903333334,-2.5054717596296303
mp-1251079,Ca2AlBiO5,2.405299999999999,-6.8205655033333334,-2.777608289444445
mp-1253097,Ca2AlSbO5,2.545,-6.887904400555556,-2.818395305555555
mp-1211141,Na5Al(HO)8,3.1712,-5.22225814125,-1.7132036288362071
mp-770414,LiAlVO4,1.7601,-7.734411625,-2.8015189411904773
mp-772390,LiAlFeO4,0.0,-7.1173737,-2.272178853333333
mp-770387,LiMnAlO4,1.6317,-7.454640750714286,-2.510589606609196
mp-1197684,Na5Al(HO)8,3.2472,-5.224477067386363,-1.71542255497257
mp-1042186,BaAlCu2O5,0.0,-6.086095668888889,-1.796899098333333
mp-1045091,Sr2AlGaW2O7,0.40120000000000006,-7.601515113076923,-2.162244687884614
mp-1046370,Sr2AlCu2AgO7,0.0,-6.01953492576923,-1.957418767051281
mp-1046381,Ba2AlTlCo2O7,0.0317,-6.603068983846155,-2.075564499102566
mp-1046452,Sr2AlCu2SnO7,0.0,-6.378880887307692,-2.227023638076922
mp-1045980,AlW3Se2ClO8,1.4901,-7.7754820496666675,-1.705881104645834
mp-1046566,Sr2AlCr2GaO7,1.1496,-7.519762246538462,-2.588966092115384
mp-1048054,Sr2Ti2AlGaO7,0.0,-7.480160890384615,-2.8197578826282053
mp-1048587,Ti3AlSe2ClO8,0.39579999999999904,-7.335700848666666,-2.2786275463125
mp-1046620,Sr2TaAlCu2O7,0.0,-7.206805182307692,-2.450535957102563
mp-1048499,AlSn3Se2ClO8,2.5163,-5.993042691666667,-1.7131530123125
mp-1046781,Sr2AlGaW2O7,0.8290000000000001,-7.545783178846154,-2.106512753653845
mp-1046779,Sr2AlGaCo2O7,0.7172000000000001,-6.919663523846155,-2.376502869423078
mp-1048033,Sr2AlGaSn2O7,1.6077,-6.417255810384615,-2.354686673653845
mp-1221260,Na4AlCr3(P2O7)4,3.143599999999999,-7.710041712045455,-2.711444037105911
mp-1222638,LiMg4Al(MoO4)6,3.4516,-7.838680068055556,-2.394198303148149
mp-1227802,Ca2AlPbOF8,1.857899999999999,-5.969477199230768,-3.528846224999999
mp-1229214,AlCoP2NO8,1.0388,-7.338741888653846,-1.982441474368132