Material_ID,Formula,Band_Gap,Energy_per_Atom,Formation_Energy_per_Atom
mp-560217,K2Al2B2O7,4.5949,-7.433307847692307,-2.991123102910255
mp-1225482,LaCeAl2O6,0.024399999999999002,-8.47138459,-3.666197123499999
mp-12885,BaAl2Sb2O7,3.4109,-7.127535169999999,-2.768880493749999
mp-15939,SrAl2B2O7,4.6521,-8.028252500833334,-3.263411640277777
mp-9844,BaAl2B2O7,4.6477,-8.035999327499999,-3.252279562777777
mp-2215794,MgAl2(CuO3)2,0.0,-6.457616629090908,-2.184180170454544
mp-1235196,LiAl2(CuO3)2,0.0,-6.335327490909091,-2.036577136666666
mp-2215789,MgAl2(CuO3)2,0.0,-6.529596547272728,-2.256160088636364
mp-1235624,LiAl2(CuO3)2,0.0,-6.359675794545454,-2.06092544030303
mp-1236720,LiLu2Al2O6,0.0,-7.6799130145454555,-3.304347972424243
mp-740731,Al2H12(SeO5)3,4.6417,-5.69789233515625,-1.543508009125976
mp-554041,Na2Al2B2O7,4.3384,-7.421170833076923,-2.946624387391688
mp-1222591,Li3Al2CoO6,0.8567999999999991,-6.780762025,-2.610836774166667
mp-556275,Rb2Al2Sb2O7,3.5936,-6.5544077553846165,-2.527796269230769
mp-554959,K2Al2Sb2O7,3.5034,-6.582776493076922,-2.53295952226923
mp-557359,Cs2Al2Sb2O7,3.6378,-6.52880731076923,-2.513358363408488
mp-558669,SrAl2B2O7,4.6876999999999995,-8.02921392875,-3.264373068194444
mp-557689,CaAl2B2O7,4.8228,-8.058428435833333,-3.267489926111109
mp-23995,Al2P3(HO3)3,6.2699,-7.063930410294118,-2.448946845745798
mp-559224,Sr3Al2Cl2O5,4.4213000000000005,-6.719517618125,-3.302407071875
mp-653569,Al2P2O11F,0.0,-6.6448392890625,-1.978369155267857
mp-707424,Al2H12(SeO5)3,4.745100000000001,-5.765230924687501,-1.610846598657227
mp-1106116,LiAl2BrO6,1.2585,-5.831478072,-1.758999362833333
mp-559325,Ba7Sc6Al2O19,2.420699999999999,-8.020128059264707,-3.522185413235294
mp-1196041,Al2H32S3O28,4.6645,-5.676987410384615,-1.567841802038461
mp-1197991,Al2Fe(PO8)2,0.33540000000000003,-6.377098036190476,-1.331407750442177
mp-1199831,Na9Al2(H9O7)3,3.6299,-5.242305281016949,-1.595808440019725
mp-560387,Cs2Al2P2O9,4.899699999999999,-7.302938568000001,-2.991625041573072
mp-726645,BaAl2(PO5)2,0.0005,-7.546426079333333,-2.898380499285714
mp-756574,Li3Al2VO6,2.1694,-7.152305765,-2.819839735
mp-772241,Li3MnAl2O6,1.747399999999999,-7.069734848541668,-2.730759716702587
mp-772435,Li3Al2FeO6,2.6577,-6.948775770833333,-2.6674668125
mp-2226987,MgAl2(CuO2)4,0.0,-5.795758347333333,-1.455615920999999
mp-1223030,LaCeAl2O6,0.27490000000000003,-8.465133065,-3.6599455985000002
mp-542029,Ti3Al2NiO,0.0,-6.933954748214286,-0.947422548928571
mp-1020161,Na3Al2(PO4)3,5.380000000000001,-7.209166248375,-2.8522529167783253
mp-1211470,Mn3Al2(GeO4)3,2.3798,-7.865026512749999,-2.453935854689654
mp-1214967,Al2Cd3(GeO4)3,2.9874,-6.452677418625001,-2.271887525875
mp-1214222,Ca3Al2(GeO4)3,3.5021,-7.290421048000001,-2.95279270175
mp-23882,Ca3Al2(HO)12,4.257899999999999,-6.007040883017241,-2.088920861465517
mp-24126,Sr3Al2(HO)12,4.012,-5.9769181413793095,-2.091195201551723
mp-1215985,YErAl2O6,5.6644000000000005,-8.5622653225,-3.736692522499999
mp-1197125,K3Al2(AsO4)3,3.2748,-6.556652969625,-2.3430949453375
mp-1199100,Al2Tl3(PO4)3,3.4362999999999992,-7.137243970125001,-2.62586793782143
mp-560629,K3Al2(PO4)3,4.6074,-7.2630610632499994,-2.937700390033927
mp-560459,Rb3Al2(PO4)3,4.4183,-7.235378914499999,-2.932643588821427
mp-1228417,Ba6Al2Rh4O15,0.0,-6.909054952592593,-2.365290217222222
mp-1229318,Al2H30Se3O28,1.060499999999999,-5.474864297222222,-1.3736454496750992
mp-605108,Al2P3H11O13,5.8945,-6.261495785172413,-1.9370855738854682
mp-1221522,Na2Al2(GeO4)3,0.318899999999999,-6.433275495,-2.042790819092559
mp-1229034,Al2Co3GeO8,0.29800000000000004,-7.396813503571429,-2.175519381071428
mp-1236333,LiAl2(HO2)2,0.0,-6.271932177777778,-2.273904241759259
mp-1236221,LiAl2V4O8,0.8878,-7.769530852000001,-2.08157172888889
mp-554206,Cs2Al2As2O7,3.662199999999999,-6.599547075384615,-2.500848698408488
mp-1223739,K2Al2B2O7,4.5822,-7.432778117179487,-2.990593372397436
mp-1228998,Al2Ga(PO4)3,0.0,-7.718184532777777,-2.932562292857142
mp-1276783,Li2Al2FeO6,0.0381,-7.048320381590909,-2.551339960378788
mp-1252320,Ba3Al2(Sb2O7)3,1.358,-6.754430809375,-2.31914127734375
mp-1360762,Ba3Al2(Sb2O7)3,1.4176,-6.717294345312499,-2.282004813281249
mp-556676,Na3Al2(AsO4)3,3.386,-6.549399207625001,-2.304288524956897
mp-768173,Li2Al2FeO6,0.9758,-7.054738538636363,-2.557758117424242
mp-1214864,Al2Ga2Bi2O9,2.7318,-6.859021493,-2.468417401666667
mp-1228996,Al2Ga2Bi2O9,2.9747,-6.846458793333334,-2.455854702000001
mp-1229026,Al2Fe2Bi2O9,2.32,-7.377295326333333,-2.26110121
mp-1229040,Al2Fe2Bi2O9,2.4514,-7.348459601,-2.232265484666667
mp-1196891,Ca2Al2Sn2O9,2.8373,-7.225575339500001,-2.955365727833334
mp-572634,Al2AgCl5O,3.441,-4.730360440277778,-2.005386624351851
mp-706302,Al2P2H4O11,0.31520000000000004,-6.754146331578948,-2.210444462067669
mp-1195111,BaAl2C2O11,0.0,-6.9315990521875,-1.7881597621875
mp-1199198,Al2B3HO8,5.5664,-7.952515217321428,-2.916216542232143
mp-1198485,Al2PbC2O11,0.0,-6.7654347040625,-1.5098909059374992
mp-1209060,SrAl2C2O11,0.0,-6.922243762968749,-1.792963651093749
mp-555644,Al2Tl3(PO4)3,3.4929,-7.132338875124999,-2.620962842821428
mp-561437,Al2Ge(O2F)2,4.0658,-7.1423908575,-3.1719766036111112
mp-1180582,LiAl2BrO6,0.9918000000000001,-5.6989177105,-1.626439001333332
mp-770689,Li2MnAl2O6,1.9674,-7.239550579090909,-2.679661604963427
mp-1104738,MgAl2(OF4)2,0.7397,-5.539347574615385,-2.8987042911538463
mp-1226589,CeNdAl2O6,0.0,-8.437139616,-3.648738116749999
mp-1235056,LiAl2(HO2)2,0.0,-6.24025371,-2.242225773981482
mp-2218439,MgNb2Al2O8,0.1905,-8.276945764615384,-2.976336549615384
mp-1221428,Na2Al2B2O7,4.3412,-7.421119525,-2.9465730793147653
mp-1222232,MgAl2(PO4)3,0.0,-7.636699432777778,-2.928723082162698
mp-1255429,Ca6Mn3Al2O15,0.0,-7.469837804038462,-2.80713734668435
mp-2715262,Na3Al2(PO4)3,5.04,-7.235623790666667,-2.878710459069992
mp-2715240,Na3Al2(PO4)3,5.044,-7.235460754499999,-2.878547422903324
mp-1222822,Li2Al2P2O9F,0.3527,-7.212634064375,-2.926043697872024
mp-1233037,CaTb4Al2(FeO6)2,2.6212,-8.107054525238095,-3.13735069126984
mp-1233298,Tb4MgAl2(FeO6)2,3.0553,-8.104436656190476,-3.152596149126984
mp-1233341,Tb4MgAl2(FeO6)2,3.007,-8.098825232380952,-3.14698472531746
mp-1233326,CaTb4Al2(FeO6)2,3.2471,-8.09116652857143,-3.121462694603174
mp-1233567,Ba2MgAl2(Fe4O7)2,1.4333,-7.545100542222222,-1.9898710864814801
mp-1233783,Tb4MgAl2(FeO6)2,3.093,-8.116971247619048,-3.165130740555555
mp-1234250,Ba2CaAl2(Fe4O7)2,1.2034,-7.553391781111111,-1.984268626666666
mp-1234545,Ba2MgAl2(Fe4O7)2,1.554199999999999,-7.557575212592592,-2.00234575685185
mp-1235259,LiTb4Al2(FeO6)2,1.6005,-8.108054836190476,-3.142954669523809
mp-1235374,SrLiAl2B2O7,0.0,-7.477928918461538,-2.932774057435897
mp-1235267,LiTb4Al2(FeO6)2,2.2604,-8.055920602380953,-3.090820435714285
mp-1235570,LiTb4Al2(FeO6)2,1.4455,-8.10173328142857,-3.136633114761904
mp-1236305,LiTb4Al2(FeO6)2,1.6254,-8.046351615714286,-3.081251449047619
mp-1247585,SrCa7Mn6Al2O20,0.09139999999999901,-7.633958421597222,-2.713011455974617
mp-1247617,SrCa7Mn6Al2O22,0.0424,-7.614015781907896,-2.691647024739111
mp-1247597,Sr2Ca14Mn14Al2O47,0.1623,-7.6300338315822795,-2.569568167228284
mp-1247679,SrCa7Mn6Al2O21,0.132199999999999,-7.631475794797297,-2.70979872000233
mp-1247716,Sr2Ca14Mn14Al2O41,0.10420000000000001,-7.679672334041096,-2.6099597113840343
mp-1247643,Sr2Ca14Mn14Al2O43,0.056100000000000004,-7.6689860322,-2.602520119347126
mp-1247705,SrCa7Mn6Al2O23,0.175899999999999,-7.589713917115385,-2.66668894846375
mp-1247722,Sr2Ca14Mn14Al2O45,0.0,-7.649703552142858,-2.5863156888446053
mp-1247712,SrCa7Mn6Al2O20,0.0,-7.661380141388889,-2.740433175766284
mp-1371750,Ca4Al2H22CO20,0.0,-3.977758218163266,0.071121341530612
mp-707897,Ca4Al2H22CO20,4.3173,-5.956859795918368,-1.90798023622449
mp-729544,Ca4Al2H22CO20,0.0041999999999990005,-0.8874782926530611,3.161401267040816
mp-762521,LiMn3Al2(HO2)6,0.2959,-6.887033441875,-2.027339646234435
mp-1235105,LiSc2Al2(CO)2,0.0,-6.639239765555556,-1.037210239814815
mp-1235805,LiSc2Al2(CO)2,0.0,-6.520056390000001,-0.9180268642592601
mp-690617,LiMn3Al2(HO2)6,0.7946000000000001,-6.908444799583333,-2.048751003942768
mp-1211139,NaAl2H8(ClO2)4,0.047299999999999,-4.049979634782609,-0.442499694407796
mp-557200,K4Nb11Al2O20F,0.6848999999999991,-8.648973717105264,-2.754130073263158
mp-1199626,Sr3Al2P(O2F5)2,0.0,-6.5320083078749995,-3.686294446607143
mp-23819,Al2P2H9NO11,5.3986,-6.499972446300001,-2.034194627921429
mp-541870,KAl2P2H5O11,5.390700000000001,-6.739666584999999,-2.413148885846938
mp-559610,Rb2NaAl2(PO4)3,4.815799999999999,-7.24514673575,-2.924352074765393
mp-648140,Na2Al2S3(Cl4O3)2,2.5981,-5.042815496547619,-1.8492092475123152
mp-694940,MnAl2Sb2(PO4)6,2.475799999999999,-7.664784994428571,-2.6317828600225193
mp-1235957,SrLiAl2B2O7,0.2214,-7.36311508,-2.817960218974359
mp-1221856,MnAl2Sb2(PO4)6,2.9471,-7.6685922671428575,-2.635590132736805
mp-1198254,Ca3Al2S(OF)8,0.6910000000000001,-6.040188598409091,-2.742878693522727
mp-1202430,Al2H15SClO13,5.3509,-5.7123613357812495,-1.689578912851562
mp-1204067,Al2CoP3NO14,0.008100000000000001,-7.094260444285714,-1.928511836139455
mp-1211858,KAl2NiP3O14,0.023999999999999,-7.131606394285714,-2.37348578910374
mp-1215028,Al2P3H12(NO4)3,4.8218,-6.5023811321875,-1.850195669810267
mp-1223112,La3Al2Ga3SnO14,3.6378,-7.630929510869565,-3.080299642717392
mp-556858,Al2P3H9(CO3)3,4.7351,-6.555280108365385,-1.689444888853022
mp-1236075,LiSc2Al2(CO)2,0.0,-6.9709951211111125,-1.36896559537037
mp-1235321,LiSc2Al2(CO)2,0.0913,-7.155458727777778,-1.553429202037037
mp-1236668,LiSc2Al2(CO)2,0.0,-7.174602273333333,-1.572572747592592
mp-1222250,Mg4Al2H12CO18,0.0,-5.927441733783784,-1.7910365292567572
mp-1256014,KAl2P2H4O11,0.5065000000000001,-6.748192467,-2.375107204826785
mp-1215089,Al2P2H6NO11,0.0,-6.506004780113637,-1.894234500876623
mp-730945,KAl2P2H5O11,5.2492,-6.738405946904761,-2.411888247751699
mp-758536,KAl2P2H4O11,0.7239000000000001,-6.728767741125,-2.355682478951786
mp-9512,SrAl2P2(O4F)2,5.4887,-7.562770551666667,-3.334375912285714
mp-1097038,LiAl2H6BrO6,4.7911,-5.86986908125,-2.051382473489583
mp-643655,LiAl2H6ClO6,5.1532,-5.9125206365625,-2.080809645989584
mp-1214492,Ba5Tm2ZrAl2O13,2.493099999999999,-7.805970608478261,-3.505004390434783
mp-1214494,Ba5Y2ZrAl2O13,2.6225,-7.940827808478262,-3.463636371304349
mp-1214508,Ba5Ho2ZrAl2O13,2.5553,-7.795104499565218,-3.4841228045652173
mp-1214525,Ba5Gd2ZrAl2O13,2.4626,-8.575366830434783,-3.440172720217391
mp-1214534,Ba5Lu2ZrAl2O13,2.5528999999999993,-7.8216488197826095,-3.517275125797103
mp-558566,Ba5Er2ZrAl2O13,2.5871,-7.802801283695652,-3.494424863043479
mp-1183004,Al2FeP2(HO)18,1.982,-6.050548455121952,-1.7342456768728232
mp-1194615,CaAl2H12(CO7)2,5.0344,-6.354003021290322,-1.9034374129032252
mp-1197917,BaAl2H10C2O13,4.8783,-6.470863603392858,-1.965770209196429
mp-1199432,Al2FeP2(HO)18,4.0407,-6.130256937073171,-1.8139541588240422
mp-1203129,MgAl2As2(HO)18,3.9949,-5.82138375195122,-1.7082578805487811
mp-1212408,MnAl2P2(H5O4)4,4.649999999999999,-5.878506150243902,-1.621071543956505
mp-1227000,Cs2ZrAl2(MoO4)6,3.4682999999999993,-8.168810541714286,-2.406531335694582
mp-1238408,BaAl2H10C2O13,0.41629999999999906,-6.073254062857144,-1.568160668660715
mp-1238482,MnAl2P2(H5O4)4,1.529399999999999,-5.764663025853658,-1.5072284195662622
mp-1238545,Al2FeP2(HO)18,0.0,-5.832077107560976,-1.515774329311847
mp-24505,MgAl2P2(HO)18,5.1934000000000005,-6.045735173902439,-1.896250717482578
mp-504975,MnAl2P2(HO)18,4.1187,-6.172462099268293,-1.8392814165784572
mp-680477,Al2RhC4Cl7O4,2.0191,-6.108926570833334,-1.414386451944445
mp-758348,LiMn3Al2(HO2)6,0.0,-6.86959038375,-2.009896588109435
mp-758231,LiMn3Al2(HO2)6,0.13090000000000002,-6.883936251041667,-2.024242455401101
mp-758686,LiMn3Al2(HO2)6,0.8307000000000001,-6.890507060208333,-2.030813264567768
mp-758328,LiMn3Al2(HO2)6,0.0,-6.883152406666666,-2.023458611026101
mp-758346,LiMn3Al2(HO2)6,0.43040000000000006,-6.890491247499999,-2.030797451859434
mp-757927,LiMn3Al2(HO2)6,0.0,-6.885937477916666,-2.026243682276101
mp-758733,LiMn3Al2(HO2)6,0.17019999999999902,-6.885430444791666,-2.025736649151101
mp-758339,LiMn3Al2(HO2)6,0.2732,-6.886822166041667,-2.027128370401101
mp-759189,MnAl2P2(HO)18,4.0877,-6.172039339512194,-1.838858656822359
mp-1197829,KAl2P2H9O13,4.8459,-6.389251789259259,-2.154679217140212
mp-686540,Na3Al2P2O8F3,5.008800000000001,-6.833247318055556,-3.073663639634647
mp-1247646,SrCa7Mn6Al2O21,0.0,-7.521404484864865,-2.599727410069897
mp-1247607,SrCa7Mn6Al2O22,0.0,-7.522374631315789,-2.600005874147005
mp-1228344,Ba6Ho2Al2Rh2O15,0.0,-7.275968037037038,-2.937138739074074
mp-1247693,SrCa7Mn6Al2O23,0.0,-7.548551328717949,-2.625526360066314
mp-1229132,Ba3Al2Ga2(FeO6)2,3.2184,-7.262214290476191,-2.708888433095238
mp-1222249,MgAl2P3NO12,0.0,-7.39663476,-2.497589914943609
mp-1218422,Sr5CaAl2(O4F)2,4.369,-6.841001553333333,-3.4315412877777782
mp-1201953,Ba3Al2B10H4O23,4.970899999999999,-7.785389118333334,-2.846680474087301
mp-1235389,SrLiAl2B2O7,0.0,-7.472802056923077,-2.927647195897435
mp-676467,Na3Al2P2O8F3,5.0591,-6.8258907608333335,-3.066307082412425
mp-1203514,KNaAl2As2O9,3.4455,-6.7039853308333335,-2.448242912741954
mp-1208735,SrAl2H6C2O11,5.103899999999999,-6.825873783749999,-2.169533764545454
mp-1215072,Al2HPb(CO5)2,0.0,-6.759870895625,-1.601376757890625
mp-1222897,Li2Al2CrSbO8,2.5534,-7.306772086428572,-2.68714821904762
mp-2713603,Na2Al2P2SO12,5.0501,-7.167673861403509,-2.719282709011106
mp-2714395,NaAl2P(SO6)2,5.2041,-7.104906704351852,-2.554873528853084
mp-759118,LiMn3Al2(HO2)6,0.5964,-6.908124280625,-2.048430484984434
mp-1233331,MgAl2H4Pb2(O2F3)2,0.134599999999999,-5.632074741052631,-2.400362117894736
mp-1233713,CaAl2H4Pb2(O2F3)2,0.7255,-5.746943001578947,-2.495486701315789
mp-1234148,MgAl2Ga2Cu4(AsO5)4,0.012,-6.394895427878788,-1.87324843909091
mp-1234616,MgAl2Ga2Cu4(AsO5)4,0.024599999999999,-6.413940567878788,-1.892293579090909
mp-1234742,MgAl2H4Pb2(O2F3)2,0.25269999999999904,-5.626223341052631,-2.394510717894736
mp-1234876,CaAl2H4Pb2(O2F3)2,0.7031000000000001,-5.730918361578947,-2.479462061315789
mp-1235551,LiAl2H4Pb2(O2F3)2,0.0,-5.649695005263157,-2.403326968859648
mp-1235207,LiAl2H4Pb2(O2F3)2,0.37349999999999905,-5.659005573157895,-2.412637536754385
mp-1235701,LiAl2H4Pb2(O2F3)2,0.300699999999999,-5.673642965789473,-2.427274929385964
mp-1236388,LiAl2H4Pb2(O2F3)2,0.0,-5.68231139736842,-2.4359433609649113
mp-1236447,LiAl2H4Pb2(O2F3)2,0.0,-5.677702290526315,-2.431334254122806
mp-2712533,Na3Mg2Al2PS5O24,4.909899999999999,-6.742170848468469,-2.427695456340923
mp-2712681,Na3Al2Zn2PS5O24,4.3545,-6.53670732981982,-2.242271202827409
mp-2712862,Na7Ca2Al2P5SO24,4.5863,-6.950495626341464,-2.783149573057792
mp-2713561,Na3Ca2Al2PS5O24,4.6512,-6.812702813153154,-2.477950131025607
mp-2713776,Na3Sc2Al2P3(SO8)3,4.384,-7.37401723927928,-2.736346547267564
mp-2713775,Na3Y2Al2P3(SO8)3,4.668,-7.388197374864865,-2.740979526366663
mp-2713852,Na3Al2Ga2P3(SO8)3,4.1326,-6.919628507747748,-2.460572576952248
mp-2713862,Na3La2Al2P3(SO8)3,4.2257,-7.279536153243244,-2.71734989366396
mp-2713966,Na3Al2In2P3(SO8)3,3.5747,-6.88183141918919,-2.437311827808104
mp-2714083,NaAl2In2PS5O24,3.1773,-6.768676917714287,-2.219832477481587
mp-2714049,NaAl2Ga2PS5O24,2.9887,-6.8118760355238095,-2.247664607910157
mp-2714064,NaY2Al2PS5O24,3.6839,-7.3116220807619055,-2.548496625862539
mp-2714089,NaLa2Al2PS5O24,3.3922,-7.20611305104762,-2.532878133005396
mp-2714187,NaSc2Al2PS5O24,3.9297,-7.287919730380953,-2.5348869837673
mp-2714625,Na5Mg2Al2P3(SO8)3,4.3891,-6.797828703162394,-2.570309242093807
mp-2714721,Na5Ca2Al2P3(SO8)3,3.9086,-6.8300525300000015,-2.583295639957055
mp-2714922,Na5Al2In2P5SO24,3.9866,-6.9517428120512825,-2.60084808502421
mp-2714900,Na5Al2Zn2P3(SO8)3,4.2959,-6.608686541965812,-2.400178691410046
mp-2715048,Na5Al2Ga2P5SO24,4.2125,-6.998372411282052,-2.6336867981438683
mp-2715125,Na5Y2Al2P5SO24,4.4855,-7.417312719743591,-2.874114518015663
mp-2715073,Na5La2Al2P5SO24,4.239800000000001,-7.31709679042735,-2.854569583314808
mp-2715191,Na5Sc2Al2P5SO24,4.5782,-7.417405807094018,-2.88326516408404
mp-2715909,Na7Mg2Al2P5SO24,4.7203,-6.892161500081301,-2.743114464602508
mp-2715827,Na3Al2Ge2P5SO24,3.1514,-7.209293202252252,-2.594991553059069
mp-2715843,Na3Al2Sn2P5SO24,3.312299999999999,-7.201957070450451,-2.620815205041052
mp-2715959,Na3Ti2Al2P5SO24,2.443399999999999,-7.656346182972973,-2.865154579095104
mp-2715845,Na7Al2Zn2P5SO24,4.297,-6.714771448048781,-2.583808627448036
mp-2715989,Na3Zr2Al2P5SO24,3.9535,-7.7518504323423425,-2.925404308824835
mp-2715867,Na3Hf2Al2P5SO24,4.7516,-7.869437458918919,-2.96680277323925
mp-2716162,NaTa2Al2P5SO24,3.0669,-8.10264064047619,-2.887397245097912
mp-2716202,NaNb2Al2P5SO24,2.3299,-7.931054254952381,-2.816703574012199
mp-2716297,NaHf2Al2P3(SO8)3,3.910999999999999,-7.815952819333334,-2.782815279413559
mp-2716322,NaAl2Sn2P3(SO8)3,2.3537,-7.09476528552381,-2.401491584175464
mp-2716431,NaAl2Ge2P3(SO8)3,2.3507,-7.100080598571428,-2.371752268651654
mp-2716385,NaZr2Al2P3(SO8)3,3.1224,-7.693739005809525,-2.741143660175463
mp-2716556,NaTi2Al2P3(SO8)3,1.8803,-7.589372206761905,-2.674045924746892
mp-776523,NaLi3Ti2Al2(PO4)6,2.5346,-7.737409949473684,-2.958606519365871
mp-1197875,Ba4NaAl2B8(BrO6)3,3.8869,-7.585607898194445,-3.032328896519797
mp-1204585,Ba4NaAl2B8(ClO6)3,4.673,-7.651647227500001,-3.080735715408685
mp-1180232,NaCa2Al2As2O11F4,0.0,-6.250461742045454,-2.420130023017241
mp-1203018,Sr4Li2Ta2Al2N8O,2.5814,-7.466324298684211,-1.494390203754386
mp-558954,Na2Sr2Al2PO4F9,6.0015,-6.403461830625,-3.603889914745073
mp-23872,Ca3Al2H6S(OF)8,5.8611,-6.153689620357142,-2.835410458214285
mp-709723,Al2P3H17C4(NO6)2,5.2254,-6.3035486845,-1.442994904129464
mp-720723,KAl2NiP3(H2O7)2,1.5108000000000001,-6.9962981725999995,-2.456250234047142
mp-559534,Ba5Al2In2IrClO13,0.0,-6.766583197708333,-2.699298291388888
mp-1201658,MnAl2P2H10O13F2,4.582199999999999,-6.498038821,-2.178472947490557
mp-1204548,Ca4Al2P2H10O13F8,5.421900000000001,-6.319670881923077,-2.73170999260989
mp-1234851,MgAl2H4Pb2(O2F3)2,0.0,-5.618546867368421,-2.386834244210526
mp-1236332,LiAl2H4Pb2(O2F3)2,0.19770000000000001,-5.679499720526316,-2.433131684122806
mp-1233357,CaAl2H4Pb2(O2F3)2,0.0,-5.7172292473684205,-2.465772947105262
mp-1234096,CaAl2H4Pb2(O2F3)2,0.16609999999999903,-5.765544982631579,-2.51408868236842
mp-1236334,LiAl2H4Pb2(O2F3)2,0.0,-5.677727521578947,-2.431359485175438
mp-1233986,CaAl2H4Pb2(O2F3)2,1.1089,-5.766305242631579,-2.51484894236842
mp-1234634,MgAl2H4Pb2(O2F3)2,1.0779,-5.643266465789473,-2.4115538426315792
mp-698033,KAl2P2H8O12F,5.1432,-6.411528510576923,-2.26136757294368
mp-707176,NaCa2Al2P2H5O11F4,5.634799999999999,-6.618778505,-2.813821764330185
mp-708964,Al2P2H8C2NO8F,5.5491,-6.569979735833333,-1.82928892892857
mp-1199124,NaAl2H18S4N4ClO18,5.071099999999999,-5.911528341458332,-1.5206064177891512
mp-1221604,Na2CaMnAl2P2H2(O5F2)2,4.3124,-6.936857774583314,-2.93275328010312
mp-679951,Ba17Al3O7,0.0047,-4.362030230925926,-1.454806952962963
mp-1228485,Al3CrO6,3.8929,-8.205701962,-3.147947862999999
mp-1178115,LaAl3O6,4.1928,-8.100186619,-3.5141365565
mp-768572,YAl3O6,4.311599999999999,-8.2520250875,-3.5086665855
mp-608080,Al3(PO4)4,0.0,-7.513812020108696,-2.641377338742236
mp-1228939,Al3NO3,4.0847,-7.768626537857143,-2.851642502142858
mp-1199889,Al3(PO8)2,0.12609999999999902,-6.459605302857144,-1.6388886066326531
mp-1410367,Na7Al3O8,0.0,-4.323497627777778,-0.9783609066475091
mp-556168,Na7Al3O8,2.7979000000000003,-5.814454737499998,-2.46931801636973
mp-675084,Ca4Al3O10,0.0,-6.696047861470588,-2.652592740294117
mp-1212582,Eu2Al3O8,0.21910000000000002,-8.68182613576923,-3.1897769542307692
mp-1214131,Ca2Al3O8,0.7739,-7.176246874230769,-2.958430313461538
mp-1214868,Al3(O2F)2,0.0,-7.163222544166667,-3.290302959722222
mp-1229262,Al3(PO8)2,0.0,-6.424200237380952,-1.603483541156462
mp-675601,Al3NO3,4.410799999999999,-7.771565457857142,-2.854581422142857
mp-1182255,Ca2Al3O8,0.0,-6.881823462307692,-2.6640069015384613
mp-762236,Al3CrO6,3.3694,-8.203834576999999,-3.146080477999999
mp-1221194,Na4Al3FeO8,3.4167,-6.676361605625,-2.635279114719828