Material_ID,Formula,Band_Gap,Energy_per_Atom,Formation_Energy_per_Atom
mp-2714249,Na7MgGa3Si3(SO8)3,2.9585999999999992,-6.460573098536586,-2.374014551089151
mp-2714225,Na5Zr2Si3Sn2(PO8)3,3.1635,-7.539515798376069,-2.844731499679277
mp-2714210,Na7CaGa3Si3(SO8)3,2.587499999999999,-6.48095903894309,-2.385250982593216
mp-2714238,Na7ZnGa3Si3(SO8)3,2.842,-6.377121225528456,-2.299604785520046
mp-2714240,Na5Ti2Si3Sn2(PO8)3,2.647199999999999,-7.448915967179488,-2.787578264038251
mp-2714234,Na7Mg3TaSi3(SO8)3,1.2995,-6.793609769674798,-2.559646844052566
mp-2714257,Na5Ti2Si3Ge2(PO8)3,2.6449,-7.454486511709402,-2.761689526516884
mp-2714265,Na6Mg16Nb8Si3(S11O48)3,0.0,-6.992132893428572,-2.324054370717981
mp-2714263,Na6Ta8Zn16Si3(S11O48)3,1.0181,-6.810764444952381,-2.103669933949726
mp-2714260,Na7CaIn3Si3(SO8)3,2.4413,-6.436350105447155,-2.360319289036305
mp-2714262,NaTa2Nb2Si3(PO8)3,2.846,-8.677971291809525,-3.06221058523737
mp-2714285,Na5La2Ta2Si3(PO8)3,2.5366,-7.902545119316239,-2.990034555867312
mp-2714286,Na7La3MgSi3(SO8)3,3.2707,-6.938333746504065,-2.7121719491176073
mp-2714271,Na5Hf2Si3Ge2(PO8)3,3.2333,-7.660554232735043,-2.862029195576713
mp-2714289,Na5Hf2Si3Sn2(PO8)3,3.3461,-7.654709531880342,-2.8876437767732943
mp-2714282,Na7TaZn3Si3(SO8)3,1.545399999999999,-6.550201313658538,-2.343364710353379
mp-2714305,Na5Ta2In2Si3(PO8)3,2.9272,-7.57500099008547,-2.774122906722012
mp-2714287,Na5Hf2Ti2Si3(PO8)3,2.6414,-8.076598021538462,-3.110254309422866
mp-2714316,Na7La3ZnSi3(SO8)3,3.3324,-6.86295838089431,-2.645838690946875
mp-2714318,Na5Nb2Ga2Si3(PO8)3,2.3757,-7.470588658290599,-2.746464432542525
mp-2714306,Na5Ta2Ga2Si3(PO8)3,3.2451,-7.627105315555555,-2.812436346080986
mp-2714329,Na6Ca8Nb4Si3(S5O24)3,0.0342,-7.081321546296296,-2.45998002931274
mp-2714428,Na14Ca4Zn4Si3(S3O16)3,2.536699999999999,-6.254229850243903,-2.316805663680615
mp-2714430,Na6Mg8Nb4Si3(S5O24)3,0.0,-6.981892776111112,-2.388338656534962
mp-2714487,Na6Ca8Ta4Si3(S5O24)3,0.8245,-7.191734684444445,-2.504999741436197
mp-2714554,Na14Mg4Zn4Si3(S3O16)3,2.9391,-6.184054734634147,-2.264929565875737
mp-2714555,Na14Ca4Mg4Si3(S3O16)3,2.9267000000000003,-6.426535480365854,-2.471027078924517
mp-2714552,Na6Mg8Ta4Si3(S5O24)3,0.4953,-7.087639759351852,-2.428692213751011
mp-2714620,Na10Ca6Si3Ge2(S3O16)3,0.006399999999999,-6.581971422222223,-2.406071663072134
mp-2714605,Na6Nb4Zn8Si3(S5O24)3,0.471599999999999,-6.707828405462964,-2.141735501071999
mp-2714623,Na7Ti2Al2Si3(PO8)3,2.6592000000000002,-7.423441991463415,-2.936914676103668
mp-2714627,Na7Hf3ZnSi3(PO8)3,3.9451,-7.663865235853659,-2.985894627648384
mp-2714628,Na3Ti3GaSi3(SO8)3,2.2794,-7.47084159918919,-2.65511642835508
mp-2714633,Na7MgTi3Si3(PO8)3,2.2218,-7.468728329268293,-2.932571492648384
mp-2714634,Na7Al2Si3Ge2(PO8)3,3.532499999999999,-7.032827790162602,-2.7059328729329373
mp-2714639,Na7Hf2Sc2Si3(PO8)3,4.4629,-7.827578366422765,-3.1142905491931
mp-2714641,Na3YZr3Si3(SO8)3,3.5101,-7.840125231351352,-2.877437322206431
mp-2714649,Na7Y2Si3Sn2(PO8)3,3.0995,-7.238660248373984,-2.806884371632124
mp-2714644,Na3Hf3AlSi3(SO8)3,4.3584,-7.876276896306307,-2.873995756620846
mp-2714637,Na3LaSi3Sn3(SO8)3,1.4485000000000001,-6.937016874234234,-2.384801146710935
mp-2714660,Na7Y3TaSi3(PO8)3,3.2439,-7.7319145356910575,-3.047531943518303
mp-2714664,Na10Ti2Zn6Si3(S3O16)3,1.2942,-6.423828142735044,-2.221392605337092
mp-2714673,Na3Ti3AlSi3(SO8)3,2.2333,-7.573126335765766,-2.738009818783007
mp-2714666,Na3Zr3ScSi3(SO8)3,3.608599999999999,-7.835238129459459,-2.877323798557782
mp-2714667,Na10La4Zn4Si3(S3O16)3,2.948,-6.603048336709402,-2.382233861277262
mp-2714676,Na10Ca4Sc4Si3(S3O16)3,2.6001000000000003,-6.9335224959401724,-2.602845545123417
mp-2714679,Na7Hf3MgSi3(PO8)3,4.0755,-7.752474095447155,-3.065461379802856
mp-2714680,Na10Zn4Ga4Si3(S3O16)3,2.2998,-6.246255989957265,-2.123283108499484
mp-2714684,Na7Hf2Ga2Si3(PO8)3,3.9446,-7.426082670081301,-2.8739837837052953
mp-2714686,Na7La2Ti2Si3(PO8)3,2.5122,-7.54642399796748,-3.001826864315051
mp-2714685,Na10Mg4Al4Si3(S3O16)3,3.486399999999999,-6.6189099179059845,-2.440131589653331
mp-2714700,Na7Mg2Ta2Si3(PO8)3,2.6798,-7.4547562378048795,-2.877676253615864
mp-2714699,Na3YSi3Ge3(SO8)3,1.5178,-6.999754181981983,-2.355282984323548
mp-2714702,Na10Ca6Ti2Si3(S3O16)3,0.9272,-6.812003513418804,-2.552194416790083
mp-2714693,Na10Y4Mg4Si3(S3O16)3,3.6074,-6.8806875137606855,-2.56019043320034
mp-2714697,Na7CaZr3Si3(PO8)3,3.7584,-7.624730360325204,-3.031701433339442
mp-2714709,Na7MgSi3Sn3(PO8)3,2.4775,-6.858839717560976,-2.607018502526432
mp-2714740,Na7Ca2Nb2Si3(PO8)3,1.851399999999999,-7.3621419199187,-2.8528908448841572
mp-2714785,Na10Ca6Si3Sn2(S3O16)3,0.9283000000000001,-6.591986882564102,-2.431816764439655
mp-2714806,Na3Zr3InSi3(SO8)3,3.3716,-7.588320874774776,-2.726982094188413
mp-2714728,Na7La2Hf2Si3(PO8)3,4.073,-7.744048791219512,-3.098881071550824
mp-2714735,Na7Sc3TaSi3(PO8)3,3.1148,-7.716820118455285,-3.045361116160579
mp-2714784,Na10Ca4Ga4Si3(S3O16)3,1.357299999999999,-6.47883637957265,-2.31761445862769
mp-2714804,Na10Mg4Ga4Si3(S3O16)3,2.1275,-6.43401047482906,-2.2920259828584593
mp-2714708,Na10La4Mg4Si3(S3O16)3,3.4733,-6.77613162957265,-2.53630554362769
mp-2714719,Na3YHf3Si3(SO8)3,4.2455,-8.002140906126126,-2.925170153737962
mp-2714723,Na3LaHf3Si3(SO8)3,4.1396,-7.951959909729731,-2.917504951801026
mp-2714743,Na7Y2Zr2Si3(PO8)3,4.112500000000001,-7.726686053577236,-3.073538041469522
mp-2714790,Na3Hf3ScSi3(SO8)3,4.2711,-7.99578319990991,-2.923586025764989
mp-2714771,Na7MgZr3Si3(PO8)3,3.9101,-7.590429631788619,-3.006550213705295
mp-2714808,Na10Sc4Zn4Si3(S3O16)3,3.2155,-6.680856791111111,-2.388428879781536
mp-2714726,Na10Mg4In4Si3(S3O16)3,2.2766,-6.407077328931624,-2.278883723072134
mp-2714731,Na3YSi3Sn3(SO8)3,1.7445,-6.998225972342343,-2.403494450359584
mp-2714760,Na10Hf2Zn6Si3(S3O16)3,3.094,-6.519438844786325,-2.264139281405467
mp-2714704,Na3Hf3InSi3(SO8)3,3.7895000000000003,-7.760009800900901,-2.7843881770712953
mp-2714730,Na7Y2Ti2Si3(PO8)3,2.5991,-7.644026512682927,-3.022693554884156
mp-2714733,Na7Ga2Si3Sn2(PO8)3,3.250099999999999,-6.834113542113822,-2.5721423228109863
mp-2714741,Na3ScTi3Si3(SO8)3,2.1618,-7.68751826027027,-2.782485708828053
mp-2714766,Na3Zr3AlSi3(SO8)3,3.6371,-7.706859503873875,-2.818861207431657
mp-2714778,Na3Zr3GaSi3(SO8)3,3.7119,-7.606091074414415,-2.7374841241208463
mp-2714779,Na3AlSi3Sn3(SO8)3,2.1767,-6.8757475246846855,-2.355705615404629
mp-2714780,Na10Ca4Y4Si3(S3O16)3,3.5288,-6.968158579700856,-2.628424070166152
mp-2714794,Na7Al2Si3Sn2(PO8)3,3.4368,-7.019365432195123,-2.7223951978922862
mp-2714797,Na7La2Si3Ge2(PO8)3,2.8146,-7.137621509593496,-2.752656774071148
mp-2714800,Na7NbAl3Si3(PO8)3,2.2193,-7.326214830487806,-2.887104665453263
mp-2714801,Na7Mg2Nb2Si3(PO8)3,1.8189000000000002,-7.309097426666668,-2.8181453694370022
mp-2714710,Na7Y3NbSi3(PO8)3,2.2394,-7.653325393821139,-3.01200676512806
mp-2714751,Na7Ti2Ga2Si3(PO8)3,2.6586,-7.238139757642277,-2.786611457282531
mp-2714776,Na7In2Si3Ge2(PO8)3,3.004499999999999,-6.8041234697560995,-2.5253457274857842
mp-2714795,Na10Mg6Ti2Si3(S3O16)3,0.6856999999999991,-6.699084481538462,-2.468131528371279
mp-2714788,Na7Y2Si3Ge2(PO8)3,3.011299999999999,-7.236731375772359,-2.775030816103669
mp-2714796,Na3GaSi3Ge3(SO8)3,2.1595,-6.7923408577477495,-2.241950618940665
mp-2714817,Na10Al4Zn4Si3(S3O16)3,3.3529,-6.431744358632479,-2.271977640892647
mp-2714839,Na3YTi3Si3(SO8)3,2.173199999999999,-7.691765844594595,-2.781959714909134
mp-2714833,Na7TaGa3Si3(PO8)3,3.1526,-7.121185285528456,-2.691509679514238
mp-2714832,Na10Ca4La4Si3(S3O16)3,3.5476,-6.886612750128205,-2.6275492352088863
mp-2714835,Na10Y4Zn4Si3(S3O16)3,3.3019,-6.703280241752137,-2.401794771704612
mp-2714842,Na7Ti3ZnSi3(PO8)3,2.224199999999999,-7.38265036593496,-2.855535636754076
mp-2714821,Na10Mg4Sc4Si3(S3O16)3,3.1704,-6.865367976068376,-2.5539284542259812
mp-2714827,Na7MgSi3Ge3(PO8)3,2.2678000000000003,-6.869327948699188,-2.572619709274401
mp-2714824,Na10Zr2Zn6Si3(S3O16)3,2.6875,-6.464762785470086,-2.245603950294356
mp-2714811,Na3InSi3Ge3(SO8)3,0.08569999999999901,-6.759069871621622,-2.215947802521746
mp-2714848,Na7In2Si3Sn2(PO8)3,2.9648,-6.796762165691057,-2.5479091063475723
mp-2714858,Na7Ca2Ta2Si3(PO8)3,2.6769,-7.504761961544715,-2.909382959550823
mp-2714861,Na10Mg6Si3Ge2(S3O16)3,1.2253,-6.481221587820514,-2.334177972131963
mp-2714862,Na7Sc2Si3Ge2(PO8)3,3.2396,-7.235049328861788,-2.781964495778465
mp-2714866,Na10Zn6Si3Sn2(S3O16)3,1.6365,-6.199002396623932,-2.096205837730254
mp-2714876,Na7Hf2In2Si3(PO8)3,3.2096,-7.395970464146341,-2.856989737729684
mp-2714879,Na3Hf3GaSi3(SO8)3,3.9587,-7.777189221711712,-2.794299428174899
mp-2714880,Na10Ca6Hf2Si3(S3O16)3,3.0997999999999992,-6.914876199273505,-2.602203076661878
mp-2714883,Na10Ca4Al4Si3(S3O16)3,2.9801,-6.657059824658121,-2.459044067431109
mp-2714881,Na10Zn4In4Si3(S3O16)3,2.545699999999999,-6.21905256957265,-2.10987057422598
mp-2714891,Na3LaTi3Si3(SO8)3,2.0824,-7.634391074324325,-2.767100739098323
mp-2714903,Na10Zn6Si3Ge2(S3O16)3,1.7777,-6.204474132649572,-2.085947932730253
mp-2714913,Na10Ca4In4Si3(S3O16)3,0.0,-6.47889781568376,-2.331466780849911
mp-2714923,Na7NbIn3Si3(PO8)3,2.3845,-6.993418140813008,-2.6264837382174893
mp-2714934,Na8Zn2In2Si3(SO8)3,0.032799999999999004,-6.20891011,-2.2514411136159
mp-2714954,Na7Zr3ZnSi3(PO8)3,3.8736,-7.504417362601627,-2.929580051957328
mp-2714910,Na7La2Si3Sn2(PO8)3,2.7819000000000003,-7.139415644715448,-2.78437559211993
mp-2714960,Na7TaIn3Si3(PO8)3,2.4663999999999993,-7.064249681219512,-2.654251315144318
mp-2714884,Na10Mg6Zr2Si3(S3O16)3,1.898499999999999,-6.742574172905983,-2.494897921961023
mp-2714899,Na7Zr2Sc2Si3(PO8)3,4.3622,-7.719623839105692,-3.075091553583344
mp-2714917,Na3LaZr3Si3(SO8)3,3.4771,-7.785545390810811,-2.86537327612535
mp-2714920,Na3Ti3InSi3(SO8)3,2.1531000000000002,-7.446817690720722,-2.638360689593819
mp-2714955,Na8Zn3Si3Ge(SO8)3,1.8147000000000002,-6.20153915904762,-2.235393401274631
mp-2714901,Na10Ca6Zr2Si3(S3O16)3,2.2717,-6.863807820000001,-2.587275425593502
mp-2714906,Na7Sc2Ti2Si3(PO8)3,2.6256,-7.635081459430895,-3.02236422821749
mp-2714908,Na7CaTi3Si3(PO8)3,2.034,-7.487816069512196,-2.942509723989848
mp-2714914,Na10Hf2Mg6Si3(S3O16)3,2.9427000000000003,-6.795398050897437,-2.511581071747348
mp-2714921,Na8Mg3Si3Sn(SO8)3,1.701899999999999,-6.437090960555556,-2.459070840520663
mp-2714944,Na8Ca3ZrSi3(SO8)3,3.0035,-6.772350133571429,-2.659484338060345
mp-2714952,Na8Ca3TiSi3(SO8)3,1.6197,-6.728120986507936,-2.6307839675047893
mp-2714968,Na7Sc2Si3Sn2(PO8)3,3.3054,-7.233931868373983,-2.81077171821749
mp-2714948,Na8HfMg3Si3(SO8)3,3.3244,-6.725497680634922,-2.605867627861933
mp-2714959,Na8Ca2Ga2Si3(SO8)3,1.9727000000000001,-6.452120931031747,-2.446329146592091
mp-2714896,Na10Mg6Si3Sn2(S3O16)3,1.5463,-6.48227280957265,-2.350958834909741
mp-2714904,Na3AlSi3Ge3(SO8)3,2.2239,-6.897999111351352,-2.328217526395621
mp-2714940,Na7CaHf3Si3(PO8)3,4.0112,-7.77968734292683,-3.083525118380092
mp-2714988,Na7ZnSi3Ge3(PO8)3,2.1439999999999992,-6.781337708861789,-2.493671576876027
mp-2714985,Na8Mg3ZrSi3(SO8)3,2.971,-6.674812854444445,-2.588742049290504
mp-2714994,Na7Zr2Al2Si3(PO8)3,4.0165,-7.501778861382114,-2.983436491713425
mp-2714995,Na7Ti2In2Si3(PO8)3,2.6207000000000003,-7.203756263089431,-2.765346122689035
mp-2714996,Na7Nb2Zn2Si3(PO8)3,1.7850000000000001,-7.13534528796748,-2.662477445615864
mp-2715007,Na8Ca2Al2Si3(SO8)3,2.9616000000000002,-6.615233508253969,-2.575276018695266
mp-2715016,Na8Mg3TiSi3(SO8)3,1.4535999999999991,-6.638155063333333,-2.567613034687329
mp-2715015,Na8Sc2Zn2Si3(SO8)3,2.565299999999999,-6.631896567857144,-2.504270649488917
mp-2715044,Na7ZnSi3Sn3(PO8)3,2.3817999999999993,-6.773436661788619,-2.5306575541931
mp-2715028,Na7Zr2Ga2Si3(PO8)3,3.9461,-7.318565126260163,-2.835221771591474
mp-2715038,Na8Mg2Sc2Si3(SO8)3,2.616599999999999,-6.793079973968254,-2.6478004172666942
mp-2715050,Na8Zn3Si3Sn(SO8)3,1.8354,-6.194638671269842,-2.243099008734949
mp-2715109,Na8TiZn3Si3(SO8)3,1.7888000000000002,-6.397253807063492,-2.3531922359174873
mp-2715121,Na7Zr2In2Si3(PO8)3,3.6683,-7.290682523333334,-2.820457328623994
mp-2715035,Na8Ca2Sc2Si3(SO8)3,2.395,-6.842671100714287,-2.679528217107964
mp-2715115,Na7Sc3NbSi3(PO8)3,2.1378,-7.640225508699187,-3.011830469884156
mp-2715135,Na8Ca2La2Si3(SO8)3,3.002399999999999,-6.7853782376190495,-2.688733544488917
mp-2715030,Na7CaSi3Ge3(PO8)3,1.9216000000000002,-6.878875013333334,-2.573017265006108
mp-2715101,Na8Ca2Y2Si3(SO8)3,2.7989,-6.866655309365079,-2.695101835520662
mp-2715095,Na8Al2Zn2Si3(SO8)3,2.9637000000000002,-6.413013605555555,-2.408573081234948
mp-2715104,Na8Mg2Ga2Si3(SO8)3,2.088799999999999,-6.406158368730159,-2.418229911195266
mp-2715061,Na8Ca3Si3Ge(SO8)3,1.486899999999999,-6.531847185,-2.512425979369869
mp-2715072,Na7La3NbSi3(PO8)3,2.4829,-7.514073461300813,-2.987858568827246
mp-2715128,Na7La2Zr2Si3(PO8)3,4.032500000000001,-7.641545767642277,-3.065133579680905
mp-2715117,Na7Ta2Zn2Si3(PO8)3,2.6365,-7.281229086178862,-2.722233316867896
mp-2715151,Na8Mg3Si3Ge(SO8)3,1.359999999999999,-6.4417991115873035,-2.4491728963143142
mp-2715033,Na8HfZn3Si3(SO8)3,3.168199999999999,-6.482083507936508,-2.38893391266352
mp-2715162,Na7Ga2Si3Ge2(PO8)3,3.207499999999999,-6.843854653821138,-2.551958751591473
mp-2715163,Na8Zn2Ga2Si3(SO8)3,2.0592,-6.240964742777779,-2.270689923576218
mp-2715157,Na8Y2Mg2Si3(SO8)3,2.9958,-6.8002494234127,-2.646559276473043
mp-2715170,Na7CaSi3Sn3(PO8)3,2.1672000000000002,-6.882934888617886,-2.621964164680905
mp-2715168,Na8Ca3Si3Sn(SO8)3,1.5146000000000002,-6.529248672857143,-2.524433562465107
mp-2715171,Na7Hf2Al2Si3(PO8)3,4.425499999999999,-7.607170922357724,-3.020073020981718
mp-2715180,Na7Y2Hf2Si3(PO8)3,4.2706,-7.840608731463415,-3.1187051876483842
mp-2715188,Na7NbGa3Si3(PO8)3,2.4001,-7.047082343333334,-2.660470700798791
mp-2715186,Na8La2Zn2Si3(SO8)3,2.8977,-6.542761258015874,-2.481633530123838
mp-2715190,Na7La3TaSi3(PO8)3,3.203999999999999,-7.584719094146342,-3.0154402381931
mp-2715185,Na8Y2Zn2Si3(SO8)3,2.7255000000000003,-6.636553804841271,-2.500517296234949
mp-2715192,Na8Ca3HfSi3(SO8)3,3.1132,-6.817895406825397,-2.671470363695266
mp-2715201,Na8Mg2Al2Si3(SO8)3,2.921299999999999,-6.573357224761905,-2.551263062107964
mp-2715208,Na7TaAl3Si3(PO8)3,3.0503,-7.400021615853659,-2.917847487339441
mp-2715211,Na8ZrZn3Si3(SO8)3,3.056899999999999,-6.437676902460319,-2.378086554806377
mp-2715216,Na8Mg2In2Si3(SO8)3,2.030599999999999,-6.369581486031747,-2.394458851314314
mp-2715209,Na8La2Mg2Si3(SO8)3,3.0396,-6.701535062698413,-2.622753696473043
mp-2715207,Na8Ca2In2Si3(SO8)3,1.778,-6.43144449920635,-2.438458537584155
mp-2715559,Na21Ca8Ta4Si3(P5O24)3,2.663899999999999,-7.322465361382115,-2.887913370389771
mp-2715602,Na3Ta10Zn2Si3(P5O24)3,2.8098,-8.48271201104762,-2.968662731877278
mp-2715629,Na21Mg8Nb4Si3(P5O24)3,1.8027000000000002,-7.147280718048781,-2.79454603543584
mp-2715636,Na3Nb10Zn2Si3(P5O24)3,2.1155,-8.196168288666668,-2.8502735335598173
mp-2715707,Na3Mg2Nb10Si3(P5O24)3,2.1371,-8.268756945428573,-2.915800734988389
mp-2715702,Na6Ta4Zn8Si3(S5O24)3,1.255,-6.813761240370371,-2.182274909954716
mp-2715744,Na21Ta4Zn8Si3(P5O24)3,2.6296,-7.007914825609757,-2.621873811527982
mp-2715786,Na21Mg8Ta4Si3(P5O24)3,2.602999999999999,-7.246748617398374,-2.836595316812534
mp-2715746,Na21Ca8Nb4Si3(P5O24)3,1.8301999999999992,-7.226341436585366,-2.8492080635659223
mp-2715805,Na3Ca2Ta10Si3(P5O24)3,2.8615999999999993,-8.577023700190477,-3.048767634924897
mp-2715808,Na3Ca2Nb10Si3(P5O24)3,2.1247,-8.290039811714285,-2.929938270512198
mp-2715775,Na21Nb4Zn8Si3(P5O24)3,1.8048000000000002,-6.910887133333333,-2.582264737224458
mp-2715796,Na3Mg2Ta10Si3(P5O24)3,2.8743,-8.55498468457143,-3.033873950067755
mp-2716120,Na6Zn2Si3Sn2(SO8)3,0.5407000000000001,-6.383052253416667,-2.232275940561064
mp-2716137,Na6Sc2Al2Si3(SO8)3,3.1518,-7.108651470500001,-2.717438684144397
mp-2716140,Na6Mg2Ti2Si3(SO8)3,0.3361,-6.978792692833334,-2.6151840516443983
mp-2716159,Na6La2In2Si3(SO8)3,2.3836999999999993,-6.808189011750001,-2.536119429727731
mp-2716146,Na6Mg2Si3Ge2(SO8)3,0.47600000000000003,-6.5648502284166685,-2.364864795311064
mp-2716129,Na6Al2In2Si3(SO8)3,2.2778,-6.659095214333334,-2.446547196061064
mp-2716131,Na6La2Y2Si3(SO8)3,3.520099999999999,-7.281331516666667,-2.821766046811064
mp-2716154,Na6Ca2Zr2Si3(SO8)3,1.7255,-7.122515638583334,-2.70754007347773
mp-2716211,Na6In2Ga2Si3(SO8)3,2.1024,-6.475797300083333,-2.299123272186063
mp-2716248,Na6Ca2Si3Sn2(SO8)3,0.0,-6.598537733916667,-2.410468607561064
mp-2716201,Na6La2Sc2Si3(SO8)3,3.4977,-7.2573091007500015,-2.806574750644397
mp-2716250,Na6Ti2Zn2Si3(SO8)3,0.28989999999999905,-6.803676103416667,-2.45860378247773
mp-2716229,Na6Y2In2Si3(SO8)3,2.0053,-6.898613284333334,-2.547889482561063
mp-2716251,Na6Hf2Zn2Si3(SO8)3,2.500099999999999,-6.996273015000001,-2.548115843394398
mp-2716320,Na2Nb4Zn4Si3(S3O16)3,0.9095000000000001,-7.086372766190477,-2.241359129122743
mp-2716194,Na6Sc2In2Si3(SO8)3,2.0716,-6.887142731500001,-2.54525004947773
mp-2716200,Na6La2Ga2Si3(SO8)3,2.6708,-6.8406374615,-2.555121765519397
mp-2716205,Na6Y2Al2Si3(SO8)3,3.427699999999999,-7.113756233000001,-2.713712326894397
mp-2716230,Na6Al2Ga2Si3(SO8)3,3.0915,-6.702978439833333,-2.47698430760273
mp-2716259,Na6Mg2Si3Sn2(SO8)3,0.7509999999999991,-6.557637892250001,-2.388325259144397
mp-2716198,Na6Ca2Hf2Si3(SO8)3,2.6026,-7.218042018416667,-2.732592033311063
mp-2716292,Na2Hf6Mg2Si3(S3O16)3,2.9265,-7.800423748714286,-2.704554688646553
mp-2716266,Na6Y2Ga2Si3(SO8)3,2.6845,-6.931404159083334,-2.567234243352731
mp-2716285,Na2Ti4Al4Si3(S3O16)3,1.286699999999999,-7.400955927809525,-2.53994119378941
mp-2716268,Na6Mg2Zr2Si3(SO8)3,1.81,-7.063465811333334,-2.667246739477731
mp-2716270,Na6Ca2Si3Ge2(SO8)3,0.0,-6.584054332833333,-2.36531240647773
mp-2716321,Na2In4Si3Ge4(S3O16)3,0.8026000000000001,-6.624462061380952,-2.006811112979885
mp-2716332,Na5HfAl3Si3(SO8)3,3.7655000000000003,-7.186113402564103,-2.6900975737024773
mp-2716267,Na6La2Al2Si3(SO8)3,3.52,-7.02261742875,-2.701227742394397
mp-2716282,Na2Ta2Al6Si3(S3O16)3,1.662999999999999,-7.369084938190476,-2.513169651617981
mp-2716291,Na2Nb2Al6Si3(S3O16)3,0.909999999999999,-7.287721325238096,-2.482252395884648
mp-2716296,Na2Ca4Ta4Si3(S3O16)3,1.2858,-7.532716688809525,-2.544189979017981
mp-2716312,Na5Y3ZrSi3(SO8)3,3.0902,-7.507416900769231,-2.8349636716511943
mp-2716323,Na2Y4Hf4Si3(S3O16)3,2.8929,-7.904232659238096,-2.7674914861703623
mp-2716350,Na2Mg4Nb4Si3(S3O16)3,0.6871,-7.301759534857143,-2.435561531789409
mp-2716301,Na2In4Si3Sn4(S3O16)3,0.974399999999999,-6.633125835095238,-2.0505295152656
mp-2716330,Na2Ga4Si3Sn4(S3O16)3,1.4988000000000001,-6.665430962,-2.06746765478941
mp-2716338,Na2Ca2Hf6Si3(S3O16)3,2.928099999999999,-7.845758996857143,-2.739171940646551
mp-2716286,Na2La4Si3Sn4(S3O16)3,0.0,-7.06755596504762,-2.360569167408457
mp-2716308,Na2Y4Ti4Si3(S3O16)3,1.2349,-7.6787438374761905,-2.659813922313219
mp-2716310,Na2Y4Zr4Si3(S3O16)3,2.3808,-7.795772244190477,-2.739573265408458
mp-2716311,Na2Sc6Nb2Si3(S3O16)3,1.4525000000000001,-7.689808116619048,-2.662605477979885
mp-2716327,Na5TiIn3Si3(SO8)3,1.8518,-6.751135285470086,-2.383860566181109
mp-2716334,Na5HfSc3Si3(SO8)3,3.742099999999999,-7.537455842991453,-2.842448223745211
mp-2716180,Na6Sc2Ga2Si3(SO8)3,2.963599999999999,-6.9236942905833345,-2.568355494602731
mp-2716190,Na6Hf2Mg2Si3(SO8)3,2.5826000000000002,-7.167904430333334,-2.70121093847773
mp-2716219,Na6Zn2Si3Ge2(SO8)3,0.17649999999999902,-6.384880074666667,-2.203430961811064
mp-2716221,Na6Ca2Ti2Si3(SO8)3,0.37460000000000004,-7.019346396083334,-2.6369812616443973
mp-2716315,Na2Ta2In6Si3(S3O16)3,1.1438,-6.986761191000001,-2.215394654713219
mp-2716222,Na6Y2Sc2Si3(SO8)3,3.5915,-7.348959545416667,-2.819570975561064
mp-2716274,Na6Zr2Zn2Si3(SO8)3,1.8169,-6.891979538916668,-2.514296787311063
mp-2716287,Na5Ga3Si3Ge(SO8)3,2.455,-6.596051444700855,-2.291999733723844
mp-2716378,Na2La4Si3Ge4(S3O16)3,0.0,-7.044833434904762,-2.302792008694171
mp-2716386,Na2Hf4Sc4Si3(S3O16)3,3.2054,-7.884346667000001,-2.757698202217981