Material_ID,Formula,Band_Gap,Energy_per_Atom,Formation_Energy_per_Atom
mp-2712897,Na42Nb4Zn20Si15(S7O48)3,1.4618,-6.335706397195122,-2.259510986018012
mp-2713770,Na18Ca4Ta8Si15(SO24)3,2.3584,-7.707868475333333,-2.8982281804249532
mp-2713898,Na18Ta8Zn4Si15(SO24)3,2.3846,-7.55543121275,-2.770652793508286
mp-2713902,Na18Nb8Zn4Si15(SO24)3,1.6461000000000001,-7.357568754416667,-2.690498502019397
mp-2713986,Na18Mg4Ta8Si15(SO24)3,2.5393,-7.675817603166667,-2.878681637091619
mp-2713999,Na18Mg4Nb8Si15(SO24)3,1.6817000000000002,-7.472624784083334,-2.79319698485273
mp-2714006,Na18Ca4Nb8Si15(SO24)3,1.6189,-7.508993606166667,-2.81706147810273
mp-2714327,Na21Mg4Nb8Si15(PO24)3,1.979,-7.507166573821139,-2.877997141974749
mp-2714325,Na21Nb8Zn4Si15(PO24)3,1.7610000000000001,-7.392072681544715,-2.7749593929503593
mp-2714368,Na21Mg4Ta8Si15(PO24)3,2.7557,-7.702385133821139,-2.9583784660289503
mp-2714458,Na21Ca4Nb8Si15(PO24)3,1.9420000000000002,-7.536089425040651,-2.894720647991009
mp-2714498,Na21Ca4Ta8Si15(PO24)3,2.7807,-7.733507885934959,-2.977301872939519
mp-2714512,Na21Ta8Zn4Si15(PO24)3,2.4389,-7.587869730081301,-2.855919205541144
mp-2714943,Na12Nb10Zn2Si15(SO24)3,2.2854,-7.805756209473684,-2.8085524509127353
mp-2714984,Na30Ta8Zn16Si15(S7O48)3,2.2704,-6.773512835811966,-2.345586991592077
mp-2714999,Na12Mg2Ta10Si15(SO24)3,3.135799999999999,-8.13032570754386,-2.971738810064782
mp-2715009,Na12Ca2Ta10Si15(SO24)3,3.1849,-8.149857706666667,-2.9846895834858342
mp-2715022,Na30Ca16Ta8Si15(S7O48)3,1.8881000000000001,-7.112002904786325,-2.6330783412501972
mp-2715025,Na30Mg16Ta8Si15(S7O48)3,2.0453,-7.017509420213676,-2.5642347619766923
mp-2715062,Na12Ta10Zn2Si15(SO24)3,3.0984,-8.069833647368421,-2.917750721906887
mp-2715094,Na12Ca2Nb10Si15(SO24)3,2.4235,-7.887295795614036,-2.877006839333787
mp-2715106,Na30Nb8Zn16Si15(S7O48)3,1.5138999999999991,-6.675034997521368,-2.307472315785809
mp-2715102,Na12Mg2Nb10Si15(SO24)3,2.3273,-7.86903704877193,-2.865329318193437
mp-2715153,Na30Ca16Nb8Si15(S7O48)3,1.4123,-7.015565217863249,-2.5970038168114513
mp-2715198,Na30Mg16Nb8Si15(S7O48)3,1.245,-6.9207254297863265,-2.527813934033672
mp-2716015,Na42Ta4Zn20Si15(S7O48)3,2.1416,-6.380395367926829,-2.27549064776327
mp-2715931,Na42Mg20Ta4Si15(S7O48)3,1.9158,-6.655742637276423,-2.520697558982782
mp-2716042,Na42Mg20Nb4Si15(S7O48)3,1.3007,-6.610874650528455,-2.504538881221264
mp-2715896,Na42Ca20Nb4Si15(S7O48)3,1.451,-6.729922212113822,-2.593088079798501
mp-2716145,Na6Ca8Ta16Si15(S7O48)3,1.981999999999999,-7.8934730640952395,-2.680341299895759
mp-2716083,Na42Ca20Ta4Si15(S7O48)3,2.2131,-6.776649883739838,-2.611106442438067
mp-2716218,Na6Mg8Ta16Si15(S7O48)3,1.8269000000000002,-7.8484442289047625,-2.649603126229092
mp-2716325,Na15Ca2Ta10Si15(PO24)3,3.409299999999999,-8.16305576008547,-3.063178236563689
mp-2716253,Na6Nb16Zn8Si15(S7O48)3,1.4487,-7.491557599476191,-2.441363026717981
mp-2716271,Na6Ca8Nb16Si15(S7O48)3,1.2688000000000001,-7.67528433352381,-2.596676188575124
mp-2716207,Na6Ta16Zn8Si15(S7O48)3,2.1271,-7.714183077285715,-2.529464885276711
mp-2716224,Na6Mg8Nb16Si15(S7O48)3,1.1738,-7.628117887380952,-2.5638004039560762
mp-2716387,Na15Ta10Zn2Si15(PO24)3,3.2902,-8.086268778034189,-2.999140934341468
mp-2716491,Na15Mg2Ta10Si15(PO24)3,3.3548,-8.145810533162393,-3.052345485965399
mp-2716510,Na15Mg2Nb10Si15(PO24)3,2.540499999999999,-7.885169837521368,-2.942612696535199
mp-2716527,Na15Nb10Zn2Si15(PO24)3,2.5488,-7.828246084102564,-2.892026146620668
mp-2716552,Na15Ca2Nb10Si15(PO24)3,2.6195,-7.904426916495727,-2.955457299184771
mp-1234904,Mg(SiO2)16,2.2877,-8.191939876938775,-3.155811088061224
mp-1203093,Ca7(Si2O5)8,0.7426,-8.007876266825397,-3.265610745555555
mp-757674,Mg17(SiO3)16,0.31709999999999905,-7.461849213333334,-3.115859003765433
mp-1219433,Si16O32F,0.1894,-8.23175562010204,-3.189843517755102
mp-1224055,K2Ba7(Si2O5)8,4.5136,-11.98618627076923,-3.114268189423077
mp-1221183,Na8Nb4Si16O53,0.0055000000000000005,-7.563002259629631,-2.622434257975735
mp-766403,Mg3Cu9(SiO3)16,0.2151,-7.305453637631579,-2.488460390328947
mp-1229169,CaAl2(Si8O19)2,0.6122000000000001,-8.048216493333333,-3.060069858070174
mp-1219453,Sr12Ti4Si16O61,0.0,-7.565274437419355,-2.828480728476703
mp-686466,Pr16Si16N27Cl3O14,2.2332,-8.28987807625,-2.191414984429823
mp-735924,Pr16Si16N27Cl3O14,0.0,-7.447268160921054,-1.348805069100878
mp-775203,Li8ScFe7(SiO3)16,2.7502,-7.893169805000002,-2.828154589645835
mp-775490,NaLi7Fe8(SiO3)16,2.7108,-7.835485591625,-2.750841001058909
mp-774516,Li8Mg3Cu9(SiO3)16,0.24019999999999903,-7.136880618095239,-2.596846454662699
mp-775186,Li8Sc5Fe3(SiO3)16,2.9242999999999992,-8.077313159125001,-3.119175549020833
mp-532705,Ca8Mg5Fe2(SiO3)16,2.5461,-7.85420845772152,-3.22832987221519
mp-778499,BaSr7V8(Si2O7)8,2.838799999999999,-8.24948839625,-3.132123340681818
mp-1221107,Na8Ti3Fe(Si4O11)4,1.0806,-7.845531886250001,-3.020453605847702
mp-1173853,Na3Ca2Mg10Si16(O11F)4,0.9215000000000001,-6.90454840164557,-2.644904801065037
mp-1224270,KNaCa3Mg10(SiO3)16,3.325599999999999,-7.437665975063291,-3.018655759729485
mp-735808,Na2Ca29ZrSi16(O7F2)8,2.3007,-6.920924093916667,-3.055040081689654
mp-1221041,Na8Zr3Si16Sn(H4O13)4,4.433,-7.23053778,-2.659619407771192
mp-1260618,K3Ca2Mg10Si16(HO12)4,0.977399999999999,-6.996433733373493,-2.639832630322288
mp-720217,K3Ca2Mg10Si16(HO12)4,0.7841,-6.9636097803614465,-2.607008677310241
mp-721039,Na2Ca6Mg7Fe(SiO3)16,0.025300000000000003,-7.676759842749999,-3.190415231846982
mp-1200379,K4Ba2Na4Ti8Mn(Si8O33)2,0.083799999999999,-7.333468414950495,-2.388648829595197
mp-1224604,K2Na4Li2Ti4Mn3Fe(SiO3)16,1.7582,-8.074608142375,-3.033449140297629
mp-1213587,K4Ba2Na4Ti8MnSi16(W4O29)2,0.0,-8.114052512178219,-2.53476407731797
mp-1194828,Si17O37,0.09050000000000001,-8.017332989166666,-2.91909292074074
mp-726849,Si17NO34,3.4089,-8.258273655673078,-3.089055224423077
mp-738361,Si17CO34,2.4369,-8.222811997019232,-3.036470724471153
mp-677026,Ca10Mg7Al6Si17O60,4.3438,-7.793278946500001,-3.362770839550001
mp-706815,KBa7Al15Si17O64,4.1533,-8.017370395673076,-3.405372870838942
mp-1199711,Si18O29,0.092599999999999,-7.94514233180851,-2.814363742765957
mp-1214452,Ca(Si9O19)2,0.0,-8.048367097982457,-3.00128213991228
mp-2713142,Na15CaNb11(SiO4)18,2.4488,-7.997136431709402,-2.978720330005895
mp-2713356,Na15Nb11Zn(SiO4)18,2.5636,-7.961775778290599,-2.949734516501622
mp-2713381,Na15MgTa11(SiO4)18,3.479199999999999,-8.278284528205129,-3.097075967832106
mp-2713394,Na15CaTa11(SiO4)18,3.3339,-8.28575760017094,-3.101342801635524
mp-2713534,Na15Ta11Zn(SiO4)18,3.3367,-8.248514115641026,-3.07047415702014
mp-2713524,Na15MgNb11(SiO4)18,2.6403,-7.991886034615384,-2.976676171074271
mp-677127,YAl6Si18(N15O)2,0.0,-8.187837708070175,-1.403933754035088
mp-1265516,La13Al12Si18(N13O5)3,1.982000000000001,-8.304674589381444,-2.055365579123711
mp-695367,La13Al12Si18(N13O5)3,0.9439000000000001,-8.292955264536083,-2.043646254278351
mp-1212074,La13Al12Si18(N2O)18,0.0,-8.147478717525773,-2.003024864175258
mp-1227789,Ca8Be5Al3(Si9O28)2,0.019600000000000003,-7.884709061333333,-3.210040931611111
mp-1227798,Ca8Be5Al3Si18(HO14)4,0.4,-7.812926647446807,-3.192705398191489
mp-1209017,SrPr12Al12Si18(N2O)18,0.4908,-7.528976549999999,-1.435347508762886
mp-534935,Sr3Pr10Al12Si18(N2O)18,3.058699999999999,-8.13221669927835,-2.102567933676976
mp-720118,Sr3Nd10Al12Si18(N2O)18,3.058899999999999,-8.132596350824741,-2.105764495103092
mp-1260118,Sr3Nd10Al12Si18(N2O)18,3.0869,-8.136051188041236,-2.109219332319587
mp-720328,KMg8Al17Si19O72,3.7898,-7.865833084615384,-3.274515530061965
mp-721011,Pr20AlSi19N33Cl2O19,3.0125,-8.392140090106382,-2.268655562801418
mp-1196569,Mg17(SiO3)20,0.13090000000000002,-7.535073908659794,-3.070104721494846
mp-1203808,Mg17(SiO3)20,0.0,-7.408074418865979,-2.943105231701031
mp-775293,Na9Fe10(SiO3)20,0.0,-7.7814702832323235,-2.709149879115291
mp-1223304,Mg2Al16Fe6Si20O73,0.044399999999999,-8.097069371282052,-3.108028392350428
mp-1228814,Ca8ScFe7(SiO3)20,1.146599999999999,-8.096799584375,-3.023347110260417
mp-720248,Na9CaFe10(SiO3)20,1.3327,-7.7962419918,-2.754588792924138
mp-775304,Na9LiFe10(SiO3)20,2.7449,-7.7697751536999995,-2.729088724957471
mp-849995,Li7Sc9Fe(SiO3)20,0.0,-8.219052465051547,-3.227209948333334
mp-1101479,NaLi9Fe10(SiO3)20,2.7254,-7.837278535499999,-2.751215939713793
mp-1178101,Li10Sc9Fe(SiO3)20,3.0593,-8.1800635326,-3.280708605383333
mp-760050,Li7Sc9Fe(SiO3)20,0.0,-8.217307287113401,-3.225464770395189
mp-720704,NaCa9ScZn9(SiO3)20,4.3544,-7.481842629600001,-3.057379607663794
mp-2712860,Na18Ca8Nb16Si21(S5O48)3,1.045,-7.597562964144145,-2.686166069740215
mp-2712868,Na18Ca8Ta16Si21(S5O48)3,1.6303,-7.802594513648649,-2.7639455469804552
mp-2712961,Na18Ta16Zn8Si21(S5O48)3,1.5634000000000001,-7.637042802837839,-2.625271539593069
mp-2712984,Na18Mg8Ta16Si21(S5O48)3,1.6553,-7.76472663481982,-2.739595861484959
mp-2712997,Na18Nb16Zn8Si21(S5O48)3,1.003,-7.430258883648649,-2.545739692668142
mp-2713023,Na18Mg8Nb16Si21(S5O48)3,1.0575,-7.558933548198198,-2.661054847127602
mp-2715535,Na42Mg16Ta8Si21(S5O48)3,1.374299999999999,-6.950897387195122,-2.618016614244299
mp-2715551,Na6Nb20Zn4Si21(S5O48)3,1.305,-7.907528771142858,-2.652153262694172
mp-2715644,Na6Ca4Ta20Si21(S5O48)3,1.885099999999999,-8.278528462571428,-2.8407916439640113
mp-2715662,Na6Ca4Nb20Si21(S5O48)3,1.259999999999999,-8.000078127333333,-2.73049583278941
mp-2715670,Na42Ca16Nb8Si21(S5O48)3,1.0252,-6.942692076504065,-2.6428312311196382
mp-2715815,Na42Ca16Ta8Si21(S5O48)3,1.6832,-7.031176904308944,-2.673897440951617
mp-2715747,Na42Ta8Zn16Si21(S5O48)3,1.524899999999999,-6.730999226056911,-2.422230739610153
mp-2715797,Na6Mg4Ta20Si21(S5O48)3,1.795399999999999,-8.252872595571429,-2.8222811077259182
mp-2715737,Na6Ta20Zn4Si21(S5O48)3,1.9467,-8.187135048333333,-2.763605015821155
mp-2715798,Na42Nb8Zn16Si21(S5O48)3,0.9252,-6.641342647764229,-2.3899927792903712
mp-2715792,Na42Mg16Nb8Si21(S5O48)3,0.651899999999999,-6.8581699309349595,-2.582707775957037
mp-2715809,Na6Mg4Nb20Si21(S5O48)3,1.1081,-7.97254646704762,-2.7101095032656
mp-1227693,Be12Al8Si24O73,0.4887,-8.053839990170939,-3.214127621752136
mp-697313,Al24Tl10Cd7(SiO4)24,2.6717999999999993,-7.462873513726708,-2.956410770766046
mp-707302,Rb10Al24Cd7(SiO4)24,2.3071,-7.477746206956521,-3.057677131335403
mp-1224991,K2Na2Ca4Mg15(SiO3)24,0.11609999999999901,-7.511154241428572,-3.108747049598812
mp-695215,Y2Al9Si27(N15O)3,2.4665,-8.21787777755814,-1.435571570348837
mp-2712852,Na18Mg4Nb20Si27(SO16)9,1.3578000000000001,-7.906090157432433,-2.82080113710508
mp-2712918,Na18Ca4Nb20Si27(SO16)9,1.5579,-7.929510409864865,-2.8374622928708453
mp-2712953,Na18Mg4Ta20Si27(SO16)9,2.1966,-8.175602928918918,-2.931248818261235
mp-2713065,Na18Ta20Zn4Si27(SO16)9,1.968,-8.107890568333334,-2.8702162127206963
mp-2713037,Na18Nb20Zn4Si27(SO16)9,1.367,-7.841870495315315,-2.763261230033007
mp-2713034,Na18Ca4Ta20Si27(SO16)9,2.1667,-8.194612586936938,-2.9434993796125872
mp-2714199,Na30Mg8Nb16Si27(SO16)9,1.5224,-7.506664569871795,-2.7581540068114503
mp-2714201,Na30Ca8Ta16Si27(SO16)9,2.123599999999999,-7.741828497264958,-2.859766656586379
mp-2714251,Na30Mg8Ta16Si27(SO16)9,2.067999999999999,-7.708129915641026,-2.83889302761202
mp-2714222,Na30Ta16Zn8Si27(SO16)9,1.9532,-7.586558096367522,-2.729995615347063
mp-2714311,Na30Ca8Nb16Si27(SO16)9,1.563699999999999,-7.542783314957266,-2.7814477992473483
mp-2714307,Na30Nb16Zn8Si27(SO16)9,1.433699999999999,-7.383565820769231,-2.647729664717433
mp-694958,Na2Li5Al7Si29O72,3.2403,-7.980823252260871,-3.180523235473265
mp-695172,CsMg12Al25Si29O108,4.345099999999999,-7.910344862285714,-3.305619005655173
mp-1173868,Na12Mg5Al2Si29O72,4.8614,-7.610025693416667,-3.065595974179598
mp-532626,NdAl6Si30(N15O)3,2.961500000000001,-8.228770004705883,-1.404446182911765
mp-677140,YAl6Si30(N15O)3,3.080000000000001,-8.236251867058824,-1.391446350352942
mp-686618,YAl6Si30(N15O)3,2.912399999999999,-8.254347490117647,-1.409541973411766
mp-560093,Sr10Sm6Al6Si30N54O7,2.9163,-7.994592584513275,-1.6638711787168141
mp-721330,Rb14Na3Al17Si31O96,2.0645,-7.611443178881988,-3.110719303907689
mp-1204533,Mg45Si32(H29O69)2,4.3207,-6.744403435018316,-2.6172254138736273
mp-2714379,Na42Mg8Ta16Si33(SO48)3,2.7953,-7.64199017898374,-2.913438016718554
mp-2714393,Na42Mg8Nb16Si33(SO48)3,2.0995,-7.4499544191463425,-2.836239492826955
mp-2714459,Na42Ca8Nb16Si33(SO48)3,2.029,-7.478444737195122,-2.8525304656724852
mp-2714422,Na42Ca8Ta16Si33(SO48)3,2.8327,-7.672743325772358,-2.931991818303921
mp-2714406,Na42Ta16Zn8Si33(SO48)3,2.7493,-7.532071941869919,-2.815575922856766
mp-2714509,Na42Nb16Zn8Si33(SO48)3,1.8167,-7.334036715934959,-2.732377932867606
mp-2716300,Na30Ca4Ta20Si33(SO48)3,2.952399999999999,-8.102387396452992,-3.018756917203188
mp-2716319,Na30Mg4Ta20Si33(SO48)3,3.032899999999999,-8.086902993162393,-3.009684990237376
mp-2716395,Na30Ta20Zn4Si33(SO48)3,2.8017000000000003,-8.027785927264958,-2.956905127844214
mp-2716457,Na30Nb20Zn4Si33(SO48)3,1.984,-7.7692467157264975,-2.849273822516579
mp-2716517,Na30Mg4Nb20Si33(SO48)3,2.2629,-7.827680327521368,-2.901370230807177
mp-2716571,Na30Ca4Nb20Si33(SO48)3,2.15,-7.842353374786326,-2.9096308017473493
mp-1205288,Mg48Si34H62O147,4.2757,-6.74095581209622,-2.615272098427835
mp-1221354,Si48O107,0.030199999999999002,-7.951250624774194,-2.855462928161291
mp-1182886,AlO3,0.0,-6.1234116315625,-1.4760469203125
mp-1182915,AlO3,0.0,-5.9271113978125,-1.2797466865625
mp-1205393,AlO3,0.0,-6.10927048375,-1.461905772499999
mp-1182868,AlO3,0.0,-6.13400332625,-1.486638615
mp-1253219,AlO3,0.0,-6.2350995725,-1.58773486125
mp-35200,AlO3,0.0,-6.23455043125,-1.58718572
mp-1182887,AlO3,0.0,-6.10889456625,-1.461529855
mp-1182877,AlO3,0.0,-5.9103769625,-1.26301225125
mp-8023,AlO,0.0,-5.898884055,-1.5521156375
mp-2646975,AlO3,2.3217,-6.4029191825,-1.75555447125
mp-1182858,AlO2,0.29390000000000005,-7.218398645,-2.6712326983333323
mp-1182911,AlO3,0.0,-5.8783718025,-1.23100709125
mp-1182869,AlO2,0.13690000000000002,-7.173523769999999,-2.626357823333332
mp-734251,AlO2,1.0972,-6.967346981666666,-2.420181035
mp-1096799,AlO2,0.0,-7.107368826666666,-2.56020288
mp-1182900,AlO2,0.0,-7.046712614166666,-2.4995466675
mp-1041957,AlW3O8,1.924799999999999,-9.032172059166667,-2.181867512499999
mp-1182949,Al(HO)3,4.8485,-6.129717695714286,-2.019009386964286
mp-1204888,AlPO6,0.458499999999999,-6.6392056075,-1.783103684330357
mp-1248478,AlCoO3,0.0,-7.235144542333334,-2.090569429333334
mp-2767452,AlV2O4,0.161999999999999,-11.235359751428572,-2.83716957
mp-554002,Al(HO)3,5.0615,-6.148139029285715,-2.037430720535714
mp-625318,Al(HO)3,5.2193,-6.136565657857142,-2.025857349107142
mp-625075,AlHO2,4.4054,-6.7370270175,-2.4778609478125
mp-625807,Al(HO)3,4.3037,-6.113984684642857,-2.003276375892857
mp-625762,Al(HO)3,4.7202,-6.124394801607143,-2.013686492857143
mp-625774,Al(HO)3,4.8775,-6.132734932857143,-2.022026624107143
mp-626103,Al(HO)3,4.9129000000000005,-6.140069299642858,-2.029360990892857
mp-626094,Al(HO)3,4.3399,-6.128426975714285,-2.017718666964286
mp-626481,Al(HO)3,3.8282,-6.101982182678571,-1.991273873928572
mp-626435,Al(HO)3,4.9639,-6.1499757467857155,-2.039267438035715
mp-626496,Al(HO)3,5.041799999999999,-6.147185617678572,-2.036477308928571
mp-626500,Al(HO)3,4.5759,-6.117180615,-2.00647230625
mp-626431,Al(HO)3,4.9443,-6.140549132857143,-2.029840824107143
mp-626504,Al(HO)3,4.747599999999999,-6.130332025,-2.01962371625
mp-626502,Al(HO)3,4.9816,-6.145992070892857,-2.035283762142857
mp-626568,Al(HO)3,3.8913,-6.110503806428571,-1.999795497678571
mp-626654,Al(HO)3,4.238399999999999,-6.102472038571428,-1.9917637298214281
mp-673602,Al(HO)3,0.0,-3.655714460535714,0.454993848214285
mp-673570,Al(HO)3,0.0,-3.6003306594642863,0.510377649285714
mp-685291,AlPO4,1.4646,-7.666428746527777,-2.840946517301586
mp-686615,AlPO4,0.0661,-7.502302457500001,-2.676820228273809
mp-696871,LaAlO3,3.581899999999999,-8.199224974,-3.4941317840000012
mp-754022,AlCoO3,0.8939,-7.369777194999999,-2.225202081999999
mp-802021,AlVO3,0.0,-6.431849764000001,-0.8971767810000001
mp-1205474,AlPO4,0.0,-6.932442354722222,-2.106960125496031
mp-760396,TaAlO4,2.3527,-9.245748526666667,-3.345023961222222
mp-625055,AlHO2,4.6632,-6.856260232499999,-2.597094162812499
mp-34993,LiAlO2,4.772600000000001,-6.881746957083333,-2.9941417804166672
mp-551798,AlPO4,0.018199999999999,-5.1281146783333345,-0.30263244910714204
mp-1045021,Mn3AlO6,0.0,-8.37202375975,-2.280084986129311
mp-1045074,Al(CoO2)3,0.0,-7.203527184749999,-1.72016798275
mp-1173619,NbAlO4,2.7643,-8.818152758194444,-3.21169860986111
mp-1220449,NbAlO4,2.880099999999999,-8.785007428333333,-3.17855328
mp-1276673,AlV2O4,0.19939999999999902,-8.688435082142858,-2.730544797857143
mp-1272257,AlV2O4,0.0364,-8.692551338214285,-2.734661053928571
mp-1394351,Al(CuO2)3,0.0,-5.416279492,-0.843183305
mp-14333,TaAlO4,4.0663,-9.301294937499998,-3.400570372055554
mp-14951,Rb3AlO3,2.651399999999999,-5.2688240978571415,-2.192958231785713
mp-19413,AlWO4,2.2527,-8.7146265,-2.63203482
mp-27927,NbAlO4,3.3835,-8.83254903,-3.226094881666666
mp-557757,AlPO4,5.7600999999999996,-7.930410847777777,-3.104928618551586
mp-753472,NbAlO4,2.7385,-8.795065479166666,-3.188611330833333
mp-9157,K3AlO3,2.8977,-5.397711546428573,-2.257201830250001
mp-1173125,TaAlO4,0.0,-8.283773296666666,-2.383048731222222
mp-1226604,CeAlO2,0.0,-7.772199375,-2.877587447499999
mp-1228805,AlOF3,0.0,-5.019368786,-2.132349994
mp-1383064,AlCrO3,0.0,-7.202312774000001,-1.5538115110000001
mp-1386275,Al(BiO3)3,0.0,-5.817611028461538,-1.206278120384616
mp-1019513,AlPO4,5.6414,-7.950407229444443,-3.124925000218252
mp-1096811,Al(BiO2)2,0.0,-6.327951071071427,-1.8540241467857141
mp-1019512,AlPO4,5.2949,-7.860896657083334,-3.035414427857143
mp-1019377,Al(PO3)3,5.9631,-7.804510332115385,-2.841152989725275
mp-1183036,Al(NO6)3,0.059699999999999004,-5.613021950568181,-0.257398898068181
mp-1183023,AlSO10,0.2066,-5.781312169583334,-1.001016715625
mp-1182973,AlSO10,0.45170000000000005,-5.689035610624999,-0.9087401566666651
mp-1182916,AlSeO10,0.005299999999999001,-5.110322549375,-0.38356443623697906
mp-1202156,AlPO6,0.0,-6.7139605090625,-1.8578585858928571
mp-1203148,AlP3O10,0.0,-7.464405665892857,-2.5021480618877563
mp-1204227,Al(NO6)3,0.0,-5.34019715125,0.015425901249999001
mp-1215122,Al(NO6)3,0.0,-5.020542290454546,0.335080762045454
mp-1238905,AlSeO10,0.0,-5.272249914583333,-0.5454918014453121
mp-1259818,AlFeO3,1.360799999999999,-7.768090902999999,-2.356194891999999
mp-1340379,AlSnO3,0.0,-6.956433518,-2.436627378
mp-27540,Al(HO)3,5.009,-6.153962866428571,-2.043254557678572
mp-560196,Al(HO)3,5.2187,-6.141092263928571,-2.030383955178571
mp-560572,Al(HO)3,5.2041,-6.144581648035714,-2.033873339285714
mp-562441,Cs3AlO3,2.2572,-5.201715280714284,-2.156945058423644
mp-626470,Al(HO)3,4.994499999999999,-6.147579959642857,-2.036871650892858
mp-625739,Al(HO)3,4.8633,-6.130550151964286,-2.019841843214286
mp-771698,LaAlO3,4.4777000000000005,-8.37044092625,-3.6653477362499993
mp-775763,AlBiO3,3.0001,-6.971450301500001,-2.475551670500001
mp-776172,AlCuO3,0.35000000000000003,-6.593635974,-2.055902871
mp-777738,Al(HO)3,5.1686,-6.132957235,-2.02224892625
mp-780411,LaAlO3,4.468500000000001,-8.334391190333333,-3.629298000333334
mp-780422,LaAlO3,4.2491,-8.391749496666668,-3.6866563066666673
mp-1019729,Eu3AlO5,0.0,-9.92029355388889,-3.325880598333335
mp-1080080,LaAlO3,3.519299999999999,-8.427160754,-3.722067564000001
mp-4096,CeAlO3,0.0,-8.520020075000001,-3.614738332
mp-866492,Cs9AlO4,0.0,-3.6199092071428582,-1.354965065492612
mp-1193181,AlP2O11,0.0,-6.22868022,-1.299816367448979
mp-1101169,Y3AlO6,4.7324,-9.0863979855,-3.790336349499999
mp-1178576,AlCoO3,2.5603,-7.454490492,-2.309915378999999
mp-1178549,AlVO3,1.569,-8.495406463,-2.96073348
mp-1178579,AlCuO3,0.13490000000000002,-6.567560944999999,-2.029827841999999
mp-1178577,AlFeO3,2.1792,-7.946164339000001,-2.534268328
mp-555941,AlPO4,5.7813,-7.931647288333333,-3.106165059107142
mp-557604,AlPO4,5.667,-7.938434054444443,-3.112951825218251
mp-756742,Lu3AlO6,4.5825,-8.636763279,-3.936922857
mp-774520,TiAlO3,0.0,-8.595938124,-3.298947951666666