Material_ID,Formula,Band_Gap,Energy_per_Atom,Formation_Energy_per_Atom
mp-1227241,Ca8Al3(FeO4)5,1.867999999999999,-7.466052755277777,-2.782973514166665
mp-690136,Mg4Al3(HO)17,2.5326,-5.880313178780487,-1.9878308838109762
mp-1208341,TbAl3(BO3)4,5.3803,-8.348061766499999,-3.249677253666666
mp-1208886,SmAl3(BO3)4,5.3057,-8.344636491,-3.242215852583333
mp-1212149,HoAl3(BO3)4,5.4672,-8.346865728000001,-3.250490423083333
mp-1212433,KAl3(P2O9)4,0.010599999999999,-6.669411286979167,-1.7981929204040181
mp-1212741,EuAl3(BO3)4,0.0,-8.5202167525,-3.139319825083332
mp-1215069,Al3Co(PO4)4,1.6574,-7.767596473020833,-2.800954206711309
mp-1215146,Al3P8NO36,0.005099999999999,-6.4581201953125,-1.4367579116071432
mp-556804,PrAl3(BO3)4,5.076200000000001,-8.33657467475,-3.230309770166666
mp-6535,NdAl3(BO3)4,5.1342,-8.34057847925,-3.235679775958333
mp-1019731,EuAl3(BO3)4,0.0,-8.520301088,-3.139404160583333
mp-1106277,ErAl3(BO3)4,5.616599999999999,-8.347053636,-3.252176363833332
mp-1208321,TbAl3(BO3)4,5.5144,-8.349004983499999,-3.2506204706666653
mp-1212827,DyAl3(BO3)4,5.543100000000001,-8.348361632,-3.250951523916666
mp-1214839,Al3Bi(BO3)4,9.999999999976698e-05,-7.997354326,-2.936361278833333
mp-1208860,SmAl3(BO3)4,5.4077,-8.344512072499999,-3.2420914340833322
mp-1212105,HoAl3(BO3)4,5.5914,-8.3475423385,-3.251167033583333
mp-13516,TmAl3(BO3)4,5.6716,-8.3436510775,-3.253034671833333
mp-15359,GdAl3(BO3)4,2.8774,-8.810100726,-3.239803282333334
mp-6062,YAl3(BO3)4,5.359,-8.435991663,-3.244045756333333
mp-7337,NdAl3(BO3)4,5.308399999999999,-8.339269953,-3.234371249708333
mp-1221239,Na4Al3Ge3O13,0.9989,-6.620649797826088,-2.499076439805098
mp-1221445,Na3Al3Ge3O16,0.0,-6.3335759028,-2.001641923965516
mp-560209,Li9Al3P8O29,5.3587,-7.262153475204082,-2.8696699927988343
mp-1106382,KAl3(SO7)2,0.0,-6.495901989000001,-2.0000884681125
mp-1179134,SrAl3(PO7)2,0.0067,-7.0200320965,-2.368454261464285
mp-1180189,NaAl3Cr2O14,0.0,-6.911452075,-1.853652211068964
mp-1189579,NaAl3(SO7)2,0.0,-6.4778526345,-1.9715215608189651
mp-1181915,CeAl3(PO7)2,0.0,-7.474636993,-2.610833068964285
mp-1214482,BaAl3(PO7)2,0.0027999999999990003,-7.036898302999999,-2.373993125464284
mp-1215156,Al3P3H7O12,2.9114,-6.179561784200001,-1.754567976307143
mp-1005666,Sc3Al3C2O5,0.425799999999999,-8.213419533461538,-2.564860239999999
mp-1196246,Al3P2(H4O7)2,0.0131,-6.619403809629629,-2.230497879232803
mp-1221481,Na2Al3As9O28,1.9093,-6.647900174761905,-2.017086365720443
mp-1227590,Ca2Al3O6F,4.4961,-7.448382300416667,-3.544253495833333
mp-555621,RbAl3(P3O10)2,5.4386,-7.720534351833334,-2.931556924678571
mp-21618,NdAl3(PbO4)2,3.1059,-7.477673907499993,-2.976684114464278
mp-14760,LuAl3(PbO4)2,3.1113,-7.464249416785714,-2.98086390797619
mp-21706,GdAl3(PbO4)2,3.052499999999999,-8.145319559285713,-2.979474422857141
mp-8888,HoAl3(PbO4)2,3.117899999999999,-7.4751368175,-2.986323307857142
mp-21567,SmAl3(PbO4)2,2.9907,-7.480194490535714,-2.982744790178571
mp-1196233,EuAl3(PbO4)2,0.07839999999999901,-7.744349434821428,-2.849076464464285
mp-1207891,Y3Al3Cr2O12,3.5074,-8.887148473124999,-3.414867023624999
mp-1207869,Y3Al3V2O12,0.0,-8.8114724315,-3.396105122
mp-1207916,Tm3Sc2Al3O12,4.9796,-8.670865743250001,-3.834630633250002
mp-1209040,Sm3Sc2Al3O12,4.316,-8.6606526295,-3.78900482125
mp-1213138,Dy3Sc2Al3O12,4.7071000000000005,-8.679226031375,-3.8226098141250002
mp-1213255,Er3Sc2Al3O12,4.8641000000000005,-8.67899896175,-3.829981252249999
mp-1213328,Eu3Sc2Al3O12,0.17289999999999903,-9.200004418625,-3.492927743375
mp-1213214,Er3Al3Cr2O12,3.539499999999999,-8.629755002875,-3.448679456874999
mp-1213017,Gd3Sc2Al3O12,3.2885,-10.063098444125,-3.787820220125
mp-1212436,Ho3Sc2Al3O12,4.763999999999999,-8.677938183375,-3.824426375624998
mp-14678,Y3Sc2Al3O12,4.3759999999999994,-8.942072918875,-3.801849305875
mp-1215114,Al3P2H6O11,0.9378000000000001,-6.427154234090909,-2.02414313280844
mp-1217784,SrYAl3O7,4.1991,-8.063237666666668,-3.557073157083333
mp-1218014,SrPrAl3O7,4.2972,-7.913678841666666,-3.550316002222221
mp-1218220,SrLaAl3O7,4.415,-7.956225530416667,-3.581151387083333
mp-1218172,SrNdAl3O7,4.277299999999999,-7.916421179166666,-3.555335341874999
mp-1218016,SrSmAl3O7,4.2408,-7.917677295,-3.560721565833332
mp-1227109,CaSmAl3O7,4.2347,-7.936314807916666,-3.553261429583333
mp-1227113,CaPrAl3O7,4.2872,-7.932480206666667,-3.543019718055555
mp-1227104,CaYAl3O7,4.202299999999999,-8.081055643333334,-3.548793484583333
mp-1227111,CaLaAl3O7,4.3925,-7.973602339166667,-3.572430546666666
mp-1227115,CaNdAl3O7,4.2799,-7.935108072916666,-3.547924586458332
mp-1218880,Sr2Al3FeO8,3.403699999999999,-7.594584001428571,-3.117777364285714
mp-1227186,CaLaAl3O7,4.3945,-7.97578830375,-3.574616511249999
mp-1227119,CaYAl3O7,4.276199999999999,-8.084193450416667,-3.551931291666666
mp-558602,CsAl3(P3O10)2,5.432,-7.715523571333334,-2.928964694250409
mp-1212809,EuAl3(BO3)4,3.8244,-8.520032465000002,-3.139135537583335
mp-560801,GdAl3(BO3)4,2.875,-8.810065412,-3.239767968333333
mp-1200456,K3Al3OF12,0.0,-5.56881808,-3.329606176671052
mp-1198782,Ca2Al3H3O8,4.488300000000001,-6.93723236421875,-2.873662701328125
mp-1214480,BaAl3(PO7)2,0.024299999999999003,-7.0379059485,-2.375000770964285
mp-756662,Al3Cr3(SbO8)2,0.2837,-7.588126049166667,-2.27057403
mp-1200599,NaAl3(PO7)2,0.000299999999999,-6.755107379625,-2.12106491015825
mp-1181360,NaAl3Fe6(SO19)2,0.0,-6.156079755399999,-0.962123498327586
mp-1216259,Y2Al3Ga3(BO3)8,5.099299999999999,-8.1467241465,-3.008589225395833
mp-1218613,Sr7Ca2Al3(O4F)3,4.1698,-6.85110903,-3.435849286851852
mp-1221172,Na4TaAl3(PO4)6,3.561899999999999,-7.66037115263158,-2.9310436942291513
mp-1221255,Na4Al3Cr(P2O7)4,3.576999999999999,-7.565598843181818,-2.8355226064240933
mp-1229173,Ba12Sm4Al3(CoO6)5,0.6442999999999991,-7.231583355370371,-2.838163261666667
mp-1229069,Al3Tl4Fe(As2O7)4,2.7875,-6.591255986136364,-1.9299713141666681
mp-1232353,Sr3NdTaAl3O12,0.0,-8.007983066,-3.391752126241667
mp-1351504,Al3Tl4Fe(As2O7)4,0.0,-5.8777003636363645,-1.216415691666667
mp-2712914,NbAl3P2(SO6)4,2.4094,-7.431170505784315,-2.505479859586835
mp-2713092,TaAl3P2(SO6)4,3.0801,-7.518635254215687,-2.541014534410364
mp-2713191,Na5Al3Ge(PO4)6,2.9864,-7.234582403333333,-2.7778576723013773
mp-2713184,Na5TiAl3(PO4)6,2.1527,-7.445862764957265,-2.905228696446676
mp-2713245,Na4NbAl3(PO4)6,2.3175,-7.57670734131579,-2.893843632983537
mp-2713465,Na5ZrAl3(PO4)6,3.9668,-7.486709208034188,-2.929351841745821
mp-2713628,Na4TaAl3(PO4)6,3.2058,-7.656739248947368,-2.92741179054494
mp-2713754,Na2Nb5Al3(PO4)12,1.8635000000000002,-8.15500411357143,-2.913368330835328
mp-2713872,Na2Ta5Al3(PO4)12,2.6079,-8.371954879476192,-3.004203203692471
mp-2714070,Na7CaAl3(PO4)6,4.5817,-7.086163410406505,-2.845229798394609
mp-2714118,Na7MgAl3(PO4)6,4.7417,-7.073220450813008,-2.841436347703553
mp-2714268,Na7Al3Zn(PO4)6,4.486099999999999,-6.982837871219513,-2.760095875549082
mp-2716421,Na5HfAl3(PO4)6,4.4779,-7.542478969487179,-2.9489808749936843
mp-2716525,Na5Al3Sn(PO4)6,3.4263999999999992,-7.228970198205129,-2.7879751081988142
mp-532676,LiMgAl3(SeO4)6,3.1184,-6.194442084857143,-1.780080560354166
mp-686614,TaTi9Al3Zn23O48,1.6647,-6.800568694166666,-2.50724352211111
mp-695545,TaTi9Al3Zn23O48,1.653299999999999,-6.801834213690476,-2.508509041634921
mp-696776,BaAl3P2(HO7)2,0.0,-7.065636987272726,-2.517980785990258
mp-1229312,Al3P3C4NO13,0.0,-7.759314730520834,-2.048498861934524
mp-706525,NaAl3P2(HO3)4,5.7509,-6.979383446931819,-2.5991292135529562
mp-2714707,NaAl3Zn(SO4)6,5.081099999999999,-6.730389743428572,-2.232692217610838
mp-2714747,NaCaAl3(SO4)6,5.048399999999999,-6.8694472711428585,-2.350439566182266
mp-2714755,NaMgAl3(SO4)6,5.2574,-6.8397865697142874,-2.331496860896552
mp-1226903,CaAl3PSO14,0.0,-6.890654272000001,-2.287273545357143
mp-1218535,SrAl3PSO14,0.0,-6.897173275499999,-2.309451138357141
mp-42458,SrAl3P2(HO2)7,5.0763,-6.781135036666666,-2.455293489556877
mp-677283,Sr4NdNb2Al3O15,2.5131,-8.0979946844,-3.410130186900001
mp-1204101,Al3P3C4NO13,0.723299999999999,-7.6964206034375,-1.985604734851191
mp-1202625,Ba2Nd2Al3(B4O9)3,0.0,-8.066900961956522,-2.8851918180434772
mp-1198443,Na2Al3P3(HO7)2,4.9664,-7.210598603645834,-2.784416246528632
mp-1200028,Al3PH29(SO14)2,0.061699999999999006,-5.832435600714286,-1.674790283030045
mp-1265272,LiMgAl3(SO4)6,5.8981,-6.860625752714285,-2.3361302699523803
mp-677680,LiMgAl3(SO4)6,5.9116,-6.854574097142857,-2.330078614380952
mp-698160,Al3P2H14(O5F)3,5.1585,-6.183068690810811,-2.140880126399615
mp-732346,Al3P2H14(O5F)3,0.48910000000000003,-5.18180982,-1.139621255588803
mp-559084,Na4Al3Ge3BrO12,3.8809,-6.57341643173913,-2.595800224587705
mp-559286,Na4Al3Ge3ClO12,4.0831,-6.604190180217392,-2.617374402413793
mp-554733,Li4Al3Ge3BrO12,3.6335,-6.721822854999999,-2.645562806449274
mp-557456,Li4Al3Ge3IO12,3.306,-6.686788447826087,-2.615438569710145
mp-23651,Na4Al3Ge3IO12,3.5794,-6.535310728913044,-2.562604692196403
mp-556886,Li4Al3Ge3ClO12,4.1175,-6.749087465434782,-2.663627579275362
mp-1220862,Na6Al3Fe3(TeO6)4,2.6393999999999993,-6.470896915,-2.070361827873563
mp-1265310,Na4Al3Ge3NO15,0.0108,-6.666276134230769,-2.318953557712201
mp-677474,Na4Al3Ge3NO15,0.011199999999999,-6.569533974423077,-2.222211397904509
mp-1209752,Rb2Na2Al3(GeO4)3,0.0,-6.57230052090909,-2.521125392852664
mp-1232342,Sr3LaTaAl3O12,0.0,-8.0281413895,-3.403517466116666
mp-1220886,NaAl3P2(HO3)4,5.8652999999999995,-6.98061136034091,-2.600357126962047
mp-1225171,Mn2Al3Fe(PO7)3,0.0,-7.248872597,-1.9760598981596882
mp-1232350,Sr3NdTaAl3O12,0.0,-7.999635007249999,-3.383404067491666
mp-694012,Ca3YAl3B4O15,4.442,-8.123688542403846,-3.327550050544871
mp-1232343,Sr3LaTaAl3O12,0.0,-8.0400901955,-3.415466272116666
mp-770625,Li4Al3Cr3(SbO8)2,2.6470000000000002,-7.427718027142857,-2.5971130297619043
mp-720104,Na4Al3Ge3NO14,2.7976,-6.7481525358,-2.424855496420689
mp-1233062,BaMgAl3P2(HO7)2,0.5051999999999991,-7.075336914782608,-2.6545148955124223
mp-1235984,BaLiAl3P2(HO7)2,3.0738,-7.014108382608696,-2.581179717613871
mp-2712536,Na2TaAl3P4(SO12)2,2.7516,-7.609061556296297,-2.7624845022313913
mp-2712780,Na2NbAl3P4(SO12)2,2.0691,-7.525337328703705,-2.727805344157317
mp-2715835,Na3NbAl3P5SO24,2.3292,-7.5500646653153165,-2.811416390176186
mp-2715921,Na3TaAl3P5SO24,3.1602,-7.631018580360361,-2.844650778122132
mp-2716377,NaNbAl3P3(SO8)3,2.0304,-7.478673067809525,-2.6188925904611793
mp-2716483,NaTaAl3P3(SO8)3,2.8124000000000002,-7.563569391333335,-2.653342556765941
mp-695635,Li3Al3P3H2O14F,5.7714,-7.128583479038462,-2.852215941016482
mp-772922,Al3P3H9C2NO13,5.31,-6.820487767741935,-2.008915257747696
mp-729027,NaMn6Al3H42(SO19)2,2.931499999999999,-6.063690976847827,-1.6457913271354951
mp-1228335,Ba4TiAl3P4(O5F)4,0.0,-7.493320926944444,-3.185414177830688
mp-738697,Al3P4H18C3N3O16,5.3507,-6.481855418191489,-1.675901731352583
mp-535042,Na4Al3Ge3B(HO3)4,4.2134,-6.254188003518518,-2.176103419988292
mp-1233034,BaMgAl3P2(HO7)2,0.0,-7.08151495173913,-2.660692932468944
mp-1202100,Al3P3H7CNO13,5.2435,-6.966584647544643,-2.211593596122449
mp-1204696,Al3P3H8C2NO13,0.955399999999999,-6.826562257291667,-1.967776211589285
mp-1233091,BaMgAl3P2(HO7)2,0.0,-6.976408148695652,-2.555586129425466
mp-1233007,BaLiAl3P2(HO7)2,3.133999999999999,-7.026041814782609,-2.593113149787784
mp-1233113,BaCaAl3P2(HO7)2,0.117299999999999,-7.196434768695652,-2.759302755295031
mp-1233466,BaMgAl3P2(HO7)2,0.0,-7.045251522173913,-2.624429502903727
mp-1235256,BaLiAl3P2(HO7)2,2.648399999999999,-7.028966022608696,-2.596037357613871
mp-1233827,BaMgAl3P2(HO7)2,0.029799999999999,-7.118422295652174,-2.697600276381987
mp-1236170,BaLiAl3P2(HO7)2,1.9554,-6.848648670434783,-2.415720005439958
mp-699455,Al3P3H9C3NO14,4.978899999999999,-6.902571202575758,-1.9530144053841991
mp-1360989,Al4(FeO4)3,0.0,-7.561973433157895,-2.311031379999999
mp-676414,Al4CO,0.0,-5.447249728333333,-0.587428092083333
mp-1247834,Al4B2O9,3.2355,-7.841034826,-2.982852432222223
mp-1229135,Al4B2O9,4.357800000000001,-9.480786249333333,-3.124633912999998
mp-1253319,Al4(CoO4)3,0.0,-7.164242844473684,-2.124343605526316
mp-1362289,Al4(NiO4)3,0.0,-6.857765773947368,-2.031542330789473
mp-1360164,Al4(FeO4)3,0.0,-7.541751897631579,-2.290809844473684
mp-31008,Na14Al4O13,2.5926,-5.416141773225807,-2.251951860784205
mp-1190518,Ta3Al4O14,0.0,-8.974905162857143,-3.267546114380951
mp-31408,Al4(B2O5)3,5.8172999999999995,-8.2545958136,-3.0834730528
mp-1190488,Al4CdO7,3.0642,-7.3091183925,-3.094281680416666
mp-3788,SrAl4O7,3.7508,-7.7401599545833335,-3.4642884175
mp-4867,CaAl4O7,3.9994,-7.7659413920833344,-3.463972205833334
mp-1247923,Al4B2O9,3.4532,-7.860211418833334,-3.002029025055556
mp-1248275,Al4(NiO4)3,0.0,-6.863501453421052,-2.037278010263156
mp-1193623,Al4As3O23,0.0,-5.836999919333334,-1.077140784916667
mp-29225,Al4Cu2O7,0.0,-6.835862226153845,-2.388443480384614
mp-1210303,Na3Al4O8,0.0,-6.41833452,-2.512257606942528
mp-1194541,BaAl4O7,4.1765,-7.717706711458333,-3.4229562702083323
mp-13703,Al4CO4,3.823299999999999,-7.484178504444445,-2.594977078611112
mp-1199693,Al4SO18,0.0,-5.554070064565217,-0.850419587282609
mp-23426,Al4Bi2O9,2.800199999999999,-7.344153459666663,-2.857885393999998
mp-768382,La2Al4O9,3.8099,-8.171141690666667,-3.545410585666667
mp-771815,Eu2Al4O9,0.0,-8.620179441666666,-3.2808343620000002
mp-1265399,Al4CO,0.0,-5.45006018,-0.5902385437500001
mp-1019532,BaAl4O7,4.1958,-7.718845162708333,-3.4240947214583333
mp-1019534,BaAl4O7,3.6891,-7.741916661875,-3.447166220625
mp-556167,SrAl4O7,3.233,-7.604970424166666,-3.3290988870833322
mp-1173027,Al4CO,0.0,-5.565057641666666,-0.7052360054166661
mp-1247836,Al4CO,0.0,-4.54088405,0.318937586249999
mp-1253012,Al4(FeO4)3,0.0,-7.5478770902631585,-2.296935037105262
mp-1361586,Al4(FeO4)3,0.0,-7.559106272631578,-2.308164219473683
mp-1358877,Al4(CoO4)3,0.0,-7.177675870789473,-2.137776631842104
mp-1233248,CaAl4Tl4O12,0.8502999999999991,-6.357480125238096,-2.269417090634922
mp-1233355,MgAl4(HO)12,3.7771999999999992,-6.007056092068966,-1.981873241724138
mp-1233465,MgAl4(HO)12,1.4774,-5.9214148527586214,-1.8962320024137922
mp-1233915,MgAl4(HO)12,4.4847,-5.991875536896551,-1.9666926865517231
mp-1233987,MgAl4Tl4O12,0.310899999999999,-6.266378623333334,-2.196178915634923
mp-1233946,MgAl4(HO)12,3.7014,-5.9785564548275865,-1.953373604482758
mp-1234119,MgAl4(HO)12,1.010399999999999,-5.914237761034483,-1.889054910689655
mp-1234204,MgAl4(HO)12,3.4048,-5.9801267634482755,-1.954943913103448
mp-1234353,MgAl4(HO)12,3.588999999999999,-5.9812268741379295,-1.956044023793103
mp-1234382,MgAl4(HO)12,1.1044,-5.914870263103448,-1.88968741275862
mp-1234533,MgAl4(HO)12,4.098599999999999,-6.017925586551724,-1.9927427362068961
mp-1234785,MgAl4Tl4O12,1.0541,-6.272913932380952,-2.202714224682541
mp-1234718,MgAl4(HO)12,3.6485000000000003,-5.970602230344828,-1.9454193800000001
mp-1234729,MgAl4(HO)12,3.297999999999999,-5.958521445862069,-1.933338595517241
mp-1234888,MgAl4(HO)12,3.873,-6.010672341724138,-1.98548949137931
mp-1235887,LiAl4Tl4O12,0.0,-6.158039833809523,-2.074580466507937
mp-1235771,LiAl4Tl4O12,0.0,-6.181819165238096,-2.09835979793651
mp-1236125,LiAl4Tl4O12,0.0,-6.165711200952382,-2.082251833650796
mp-2229131,MgAl4Cr2O10,2.569199999999999,-7.988074727058823,-2.964634825588236
mp-1202393,UAl4B3O14,0.36799999999999905,-8.401005378181818,-3.14721707306818
mp-1222874,LaPr3Al4O12,3.2879,-8.352726085499999,-3.668713242499999
mp-758693,Na4Al4H10O13,4.492,-5.948114178387097,-2.121522440097331
mp-1020724,Na7Al4P9O32,4.9808,-7.301980483365384,-2.851050432239248
mp-1228406,Al4Zn3Cr2O12,3.5397,-7.410801653809523,-2.7706511228571413
mp-1236205,LiAl4Zn2O8,0.0,-6.446829259333333,-2.513869162888888
mp-1235175,LiAl4Zn2O8,0.0,-6.454366017333332,-2.521405920888888
mp-1332806,Rb6Al4(Sb2O7)3,0.0,-6.036425447027026,-1.994622844324323
mp-2226815,MgAl4(CuO4)2,0.33019999999999905,-6.654928236,-2.361936588333333
mp-2229469,MgTi2Al4O10,0.0609,-8.018987665882353,-3.202318994215685
mp-2229810,MgAl4Cr2O10,1.191399999999999,-7.918463117058824,-2.8950232155882363
mp-1247620,Ca8Mn4Al4O21,0.0,-7.42272613054054,-2.785365464776328
mp-1214513,Ba6Tb2Al4O15,3.9253,-7.48255929462963,-3.408807617530864
mp-1214682,Ba6Gd2Al4O15,3.431899999999999,-8.16378404962963,-3.39090210462963
mp-1214526,Ba6Nd2Al4O15,3.9421,-7.443673702592592,-3.360271372962962
mp-1214532,Ba6Sm2Al4O15,3.941899999999999,-7.4603917685185195,-3.38066064611111
mp-1214541,Ba6Dy2Al4O15,3.928,-7.486149537962963,-3.41384142345679
mp-1214515,Ba6Tm2Al4O15,3.888499999999999,-7.492574798888889,-3.430331428703704
mp-1214530,Ba6Lu2Al4O15,3.8537999999999992,-7.501496669444445,-3.436350634567901
mp-1214519,Ba6Y2Al4O15,3.9211,-7.616759137407407,-3.404397987962963
mp-19348,Al4Co(BO5)2,1.7495,-7.9680601329411775,-2.970759331078431
mp-706709,Al4P3(HO5)3,5.5706,-7.422358177,-2.797012645507142
mp-1222844,LaPr3Al4O12,3.907599999999999,-8.354813649499999,-3.670800806499999
mp-1219436,Sc2Al4(CO)3,0.139499999999999,-7.4685804325,-1.620487013958333
mp-1235830,LiAl4Cd2O8,0.0,-6.424558264666667,-2.531562624222222
mp-2227038,MgAl4(CuO4)2,0.893799999999999,-6.881777831333333,-2.588786183666666
mp-554364,MgBeAl4O8,5.5286,-7.598391933571428,-3.317258059285714
mp-1229278,Al4H50S7O52,1.6362,-5.753583018761062,-1.585413863982301
mp-1199608,Al4H12C15O31,0.871,-7.180922869032258,-1.5754216734274191
mp-1235214,LiAl4Cd2O8,0.0,-6.189245369999999,-2.296249729555555
mp-2226796,MgAl4(CuO4)2,0.0,-6.187058376666666,-1.894066728999999
mp-1199096,Ca3Al4CoO10,2.637299999999999,-7.511201057083334,-3.1994160720833342
mp-557955,Ca3Al4ZnO10,3.544699999999999,-7.24657488013889,-3.261105067916666
mp-10990,Al4CN3O,0.13470000000000001,-6.840184180555556,-0.8208771747222231
mp-1228068,Ba6Dy2Al4O15,1.9634,-7.452630168518518,-3.380322054012345
mp-2224718,MgAl4Cr2O10,2.054,-7.952551402941176,-2.9291115014705893
mp-2224242,MgTi2Al4O10,0.0,-7.991864158235295,-3.175195486568628
mp-1182907,Ca3Al4CoO10,2.387699999999999,-7.342908888749999,-3.031123903749999
mp-1235144,LiAl4Cd2O8,0.0,-6.399295149333333,-2.506299508888888
mp-1235363,LiAl4Zn2O8,0.0,-6.473475962666667,-2.540515866222222
mp-1236099,LiAl4Zn2O8,0.0,-6.460539763333333,-2.5275796668888892
mp-2228117,MgAl4(CuO4)2,0.2635,-6.858074273333333,-2.5650826256666672
mp-1020715,Sr6Y2Al4O15,3.9869,-7.609783721481482,-3.447766316481481
mp-1358157,Ba3Al4(Sb2O7)3,0.0,-6.730002488823529,-2.335284351029411
mp-2228636,MgAl4(CuO4)2,1.246999999999999,-6.804736587333333,-2.511744939666666
mp-2232986,MgAl4(CuO4)2,0.6317,-6.850462890666666,-2.5574712429999993
mp-1220286,Nd3GdAl4O12,2.9123,-8.809613709999999,-3.672693714124999
mp-1219063,SmGd3Al4O12,3.249,-9.756880112000001,-3.69164070025
mp-1233153,MgAl4Tl4O12,0.7512999999999991,-6.215084686666666,-2.144884978968254
mp-1233311,MgAl4Tl4O12,0.6312999999999991,-6.220020613333334,-2.149820905634922
mp-1233423,CaAl4Tl4O12,0.36909999999999904,-6.199192657619048,-2.111129623015875
mp-1235394,LiAl4Tl4O12,0.0,-6.152069349047619,-2.068609981746033
mp-2229104,MgTi2Al4O10,0.0,-8.042176562941178,-3.22550789127451
mp-2228730,MgAl4(CuO4)2,0.28080000000000005,-6.739588032666666,-2.446596385
mp-2229744,MgTi2Al4O10,0.07350000000000001,-8.01262419117647,-3.195955519509805
mp-1196877,BaAl4(SbO6)2,3.249899999999999,-7.384326741315789,-2.935126067631578
mp-1228466,Ba6Nd2Al4O15,3.8495,-7.415509249629629,-3.332106919999999
mp-2713874,Na3Al4P3(SO8)3,5.066699999999999,-7.137716733063064,-2.639878109970267
mp-2714293,NaAl4PS5O24,4.4521999999999995,-7.045720151333334,-2.440509877576824
mp-2715004,Na5Al4P5SO24,5.0197,-7.202815528717949,-2.8013360792977133
mp-558240,K3Al4P2O8F9,5.701499999999999,-6.685921067115384,-3.377624184270604
mp-1212100,KAl4Fe3(HO6)2,1.3491,-7.286767077727273,-2.391785186352272
mp-1221313,Na2SrAl4(B2O7)2,2.4779,-7.688928017199999,-3.07504025237701
mp-1210822,Mg2Al4Fe(PO6)4,0.0,-7.155305744857142,-2.380270808244898
mp-540725,CsBe4Al4(B3O7)4,0.0,-8.00482564632653,-2.91210030468684
mp-1201890,Al4P5HN2O21,0.012799999999999001,-7.187011981818181,-2.155540043014069
mp-1205426,KNa3Al4(GeO4)4,3.7542,-6.850285924107142,-2.643202964156711
mp-573281,KNa3Al4(GeO4)4,3.3222,-6.531948963928571,-2.32486600397814