Material_ID,Formula,Band_Gap,Energy_per_Atom,Formation_Energy_per_Atom
mp-775099,Li2Mn3FeO8,0.014100000000000001,-7.625794903392857,-1.957394841997126
mp-1199661,K3Fe(CO2)6,2.4662,-7.534323948295454,-1.779248703147727
mp-1222043,MgCr4FeO8,2.6919999999999993,-8.705579792857144,-2.398696282500001
mp-1225195,FeC3N3O2,0.0,-7.200294178888888,0.696013924722221
mp-1385922,CaFeWO6,0.0,-8.043395186666666,-2.141004369999999
mp-1021504,Ba2NbFeO6,1.455,-8.1052579365,-2.895553720499999
mp-1078912,Sr2HfFeO6,0.0,-8.1256466775,-2.9756634325
mp-1094048,Sr2TiFeO6,0.0,-7.809109334,-2.865295790333333
mp-1094054,Sr2FeCoO6,0.0,-6.958838957,-2.091232943
mp-1096782,Ba2VFeO6,1.0389,-7.7006497330000006,-2.592685414
mp-1095170,Sr2FeOsO6,0.0,-7.609113272499999,-2.332112187499999
mp-1096778,Ba2VFeO6,0.0,-5.52943243,-0.42146811100000003
mp-1096853,Ba2NbFeO6,0.0,-5.159803392,0.049900824
mp-1205525,Sr2FeBiO6,0.349599999999999,-6.755814448000001,-2.212546675000001
mp-1205671,Ba2TaFeO6,1.862299999999999,-8.3924803525,-3.006213886233333
mp-1205806,FePb2WO6,2.3575,-7.5687763220000015,-1.714655161
mp-1207219,Sr2FeSbO6,1.6652,-7.08028200225,-2.5131175362500002
mp-1218705,Sr2TaFeO6,2.0462,-8.3841658885,-3.043208792233334
mp-1218741,Sr2NbFeO6,1.7829000000000002,-8.088352271,-2.9239574249999993
mp-1218012,TaFe(PbO3)2,2.0945,-7.908615481,-2.1636145887333322
mp-1220306,NbFe(PbO3)2,1.8713000000000002,-7.64376135,-2.075322707999999
mp-1218817,Sr2FeSnO6,0.0,-6.931282784999999,-2.376061257499999
mp-1218831,Sr2FeRuO6,0.0,-7.373137807000001,-2.291433211
mp-1516596,Eu2NbFeO6,0.0,-9.770205663,-2.886674052000002
mp-1517296,Ca2TbFeO6,0.36160000000000003,-7.258839223,-2.5781541606666663
mp-1517097,Ca2FeBiO6,0.4893,-6.708135263,-2.102233132
mp-1516973,Ba2SrFeO6,0.0,-6.655252602999999,-2.286436081999999
mp-1518012,Sr2DyFeO6,0.22190000000000001,-7.306486735,-2.690384840166666
mp-1518318,Eu2HfFeO6,0.0,-9.93772049,-3.06860048
mp-1518753,Sr2SmFeO6,0.23290000000000002,-7.249252848999999,-2.6231298935
mp-1518585,Eu2InFeO6,0.0,-8.452558095,-2.303239613666668
mp-1519522,Sr2NdFeO6,0.23720000000000002,-7.214488814000001,-2.5834097287500013
mp-1519374,Eu2ZrFeO6,0.0,-9.702818781000001,-2.974647611000001
mp-1520435,Ba2SmFeO6,0.0,-7.31117152,-2.639739194500001
mp-1520386,Sr2ZrFeO6,0.0,-7.898865144,-2.889830738999999
mp-1520955,Eu2FeSnO6,0.0,-8.761957288000001,-2.487598995500001
mp-1521041,Eu2FeWO6,0.0,-9.690340722,-2.521126592
mp-1521637,Ca2ZrFeO6,0.0,-7.8715210980000005,-2.799852334999999
mp-1521510,Sr2CeFeO6,0.0,-7.586032725,-2.838073395999999
mp-1522277,Na2CeFeO6,0.0,-6.668287929,-1.990470062275861
mp-1522066,Sr2TbFeO6,0.22729999999999903,-7.296872271,-2.678821566666665
mp-18845,Ba2FeWO6,0.0,-8.1355576365,-2.6401709015
mp-18995,Ba2FeMoO6,0.0,-7.781958845,-2.4978201220000003
mp-19059,Ca2FeWO6,0.0,-7.9991724810000004,-2.486460758
mp-19127,Sr2FeMoO6,0.1887,-7.770677546,-2.531848193
mp-31756,Ba2FeReO6,0.0,-7.9303005859999995,-2.48591545325
mp-504699,Ba2UFeO6,0.5156000000000001,-8.438482202,-3.109767488999999
mp-549767,Sr2FeWO6,0.0,-7.90885946,-2.458782095000001
mp-653429,Mn7FeCl3O10,0.9382,-7.9808876611904775,-1.9032996476436792
mp-1274978,LiNbFeO4,1.6567,-8.203490546071428,-2.450334383690475
mp-1217937,Ti6Fe(BiO3)9,0.0,-6.7863198137209295,-1.566593552441861
mp-2227859,MgFeBiO3,0.0,-6.260665876666667,-1.454931118333333
mp-623098,Ca2FeWO6,1.875,-8.0138407805,-2.501129057499999
mp-1176813,LiFeSnO4,2.154199999999999,-6.881314446428571,-1.998405881904762
mp-1215822,ZnFeBO4,1.103599999999999,-7.255156269642856,-2.083584753809523
mp-1220922,NaTiFeO4,1.8618000000000001,-7.8997084667857145,-2.5426973203160923
mp-1221058,NaFeSnO4,1.8559,-6.741809190714285,-1.9399294959113291
mp-764401,MnFe(PO4)2,1.0006,-8.047916914166667,-2.377360948101396
mp-757248,Li2FePO5,2.590799999999999,-7.092846548055556,-2.376941493201058
mp-1201434,K2FeP4O15,0.0,-6.809303844886364,-1.9632097616168842
mp-757097,LiFePO4,3.7339,-7.549724302142857,-2.465972641853741
mp-757629,Li3Fe(PO4)2,1.9917999999999991,-7.106351231607142,-2.491249452984693
mp-765594,LiFePO4,3.714399999999999,-7.552221919107142,-2.468470258818026
mp-777232,Li2FeBO4,2.7314,-7.10052575765625,-2.255637915885416
mp-779250,Li2FeBO4,2.247,-7.096232670312499,-2.251344828541666
mp-1173281,Sr2FeMoO6,0.3773,-7.768934220200001,-2.5301048672000013
mp-1221970,Mn3Nb8FeO24,2.527399999999999,-9.380515328888889,-2.838360564272029
mp-1227684,Ca12FeCo7O24,0.0,-6.98639807840909,-2.413166239090908
mp-759092,LiFePO4,2.8914,-7.450784042261905,-2.367032381972788
mp-755720,Li4Fe(TeO4)3,0.0,-6.0496925535,-1.804134432666666
mp-787524,Li4Fe(WO4)3,2.2436,-7.92961896075,-2.211837189416666
mp-887746,LiFe(Se2O5)2,2.0499,-6.041192127812501,-1.426054625481771
mp-1210923,Li2FeGeO4,2.1565,-6.72966544125,-2.141823088958333
mp-764402,MnFe(PO4)2,0.7687,-8.044668360000001,-2.37411239393473
mp-770663,Li2FeBO4,2.434,-7.13751513,-2.292627288229166
mp-1097060,KCe2FeO5,0.036499999999999005,-7.947994406944444,-2.8129837738611103
mp-1201876,La2Fe(SeO)2,1.6513,-7.615920511607142,-2.583094742276786
mp-1213459,FeSb(P2O7)2,2.6756,-7.5810419105,-2.40442337942857
mp-26041,LiFePO4,3.594999999999999,-7.553122495714285,-2.469370835425169
mp-26791,LiFePO4,3.6765,-7.517999772857143,-2.434248112568027
mp-705312,LiFePO4,3.7718,-7.547219765238095,-2.463468104948979
mp-704626,FeAg(SeO3)2,1.179,-6.04704936825,-1.247794580885416
mp-757027,LiFePO4,3.726,-7.547720987142857,-2.46396932685374
mp-757406,LiFePO4,3.6999,-7.518161122142857,-2.43440946185374
mp-757465,LiFePO4,3.5637,-7.4679792775,-2.384227617210883
mp-758459,LiFePO4,3.546599999999999,-7.480648725,-2.396897064710884
mp-758222,LiFePO4,3.6497,-7.504864097142858,-2.421112436853741
mp-765579,Li3FePO5,3.1798,-6.873819297,-2.438612460964285
mp-765591,LiFePO4,3.5869,-7.503456842857142,-2.419705182568026
mp-765638,LiFePO4,3.3172,-7.47942786625,-2.395676205960884
mp-767499,ZrFe(PO4)3,0.014899999999999,-8.016828858970587,-2.567436242731092
mp-768312,Li2FeBO4,2.6187,-7.154517770312499,-2.309629928541666
mp-771078,Li3FeBO5,0.497799999999999,-6.68799419875,-2.126395538166667
mp-779305,Li2FeBO4,2.7463,-7.149704164375,-2.3048163226041662
mp-1653877,Sr6Ti3FeO14,0.0,-7.861108293333333,-3.211836632083333
mp-1217230,V5FePbO11,0.7157999999999991,-8.50859957388889,-2.284723480277779
mp-1227142,CaNdFeO4,0.0,-7.884426590714285,-2.8793390846428553
mp-1227248,Ce2Fe(SeO)2,0.0,-7.640675782142857,-2.321866365669642
mp-1663998,Li2Mn3FeO8,0.48480000000000006,-7.648125317142857,-1.979725255747126
mp-780154,Li4FeO3F,2.8051,-5.842487636666667,-2.190993407037038
mp-759890,Li8Fe(O2F)2,3.0785,-5.364864783333333,-2.207467922444444
mp-775524,Li2V3FeO8,1.264399999999999,-7.986800758928572,-2.335138387976191
mp-772596,Li2FeNi3O8,0.2662,-6.235530277142857,-1.291818489761904
mp-885434,KLi2FeO3,2.0637,-5.584626760714285,-1.5470382348452372
mp-757939,LiFeCO4,1.977199999999999,-7.476162861428571,-1.847669491547618
mp-1218555,Sr6Mn3FeO14,0.0,-7.359184355833332,-2.551597285158045
mp-1221997,MgTi4FeO10,1.394299999999999,-8.9197262990625,-3.222096965208333
mp-1225010,FeHg2O3F5,0.0,-4.296982124545455,-1.251299381363638
mp-1519272,CaFe(GeO3)4,0.0,-6.670016338888889,-1.76205719611111
mp-1519803,KFe(SeO3)4,0.10210000000000001,-5.5272006977777774,-0.918280203145833
mp-1645141,Sr6Ti3FeO14,0.0,-7.8658913918749995,-3.216619730624999
mp-2240530,MgFeSbO4,0.0,-6.672208432857142,-1.812017506428571
mp-1047105,ZnFeAsO5,1.9675,-6.574519845625001,-1.682058298437501
mp-1176699,LiFePO4,3.3194,-7.4813555546428585,-2.397603894353741
mp-1177116,Li5FeO4F,0.7312000000000001,-5.727879455,-2.116940187878788
mp-1181338,FePb2Cl3O5,0.0,-5.005064856818182,-0.8068149681818171
mp-1196303,Cr2FeNO8,0.0,-7.204560676041667,-0.8963871814583331
mp-1217450,Ti2In3FeO10,1.559499999999999,-7.6194513390625005,-2.493317806354166
mp-1217452,Ti3Fe(BiO3)5,2.0168,-7.602781721875,-2.360028226666667
mp-1222472,LiFe(SO4)2,2.0509,-6.800526030833333,-1.947246759861109
mp-1289779,Mn2FeReO6,0.0,-8.788961703,-1.895968499836207
mp-1664598,Li2Mn3FeO8,0.45580000000000004,-7.64606885,-1.977668788604269
mp-1643412,Li2Fe(CoO3)2,0.648799999999999,-6.630868338636364,-1.517916846515151
mp-19294,LiFeP2O7,1.7443,-7.602633757727273,-2.525759379329004
mp-26056,Li3Fe(PO4)2,2.3376,-7.16359811,-2.54849633137755
mp-26811,LiFe(PO3)4,2.9057,-7.589970659166665,-2.51128342371693
mp-2912291,LiFe(PO3)4,2.004,-9.167389725555555,-2.254242795476189
mp-697816,Li2Fe(PO4)2,0.0,-7.195527931730769,-2.372258544496337
mp-689973,Li2Fe(PO4)2,0.0,-7.202846223461538,-2.379576836227106
mp-752859,LiFeP2O7,2.379,-7.527119212272726,-2.450244833874457
mp-752506,NaFeP2O7,2.5578000000000003,-7.528462905454545,-2.503152353242273
mp-758136,LiFe(PO3)4,2.5293,-7.531796051111112,-2.453108815661376
mp-758737,LiFe(PO3)4,2.2489,-7.558777101944445,-2.480089866494709
mp-758724,LiFe(PO3)4,2.3608000000000002,-7.553271275833333,-2.474584040383597
mp-763588,LiFe(CO3)2,2.1614,-7.683452718,-1.831048608833333
mp-769637,Li5Ti6FeO16,2.7030000000000003,-8.231014945535714,-3.06833766970238
mp-772539,Li2FeP2O7,3.463999999999999,-7.2976872328125,-2.484808813725198
mp-776146,Li2V3FeO8,1.047699999999999,-7.991685390714286,-2.340023019761905
mp-779056,Li2FeP2O7,4.144699999999999,-7.383393873333333,-2.570515454246031
mp-778608,Li6FeO4F,2.758099999999999,-5.604390500416667,-2.135285933333334
mp-753464,Li5FeO3F,2.7542,-5.587501328499999,-2.110264235166666
mp-765096,Li3Fe(CO3)3,2.3924,-7.382500506562501,-1.9815982982812512
mp-1639830,Li2Fe(CoO3)2,0.9249,-6.682650722727273,-1.56969923060606
mp-1304800,Sr3MnFeO7,0.0,-7.270478365416667,-2.491724381494253
mp-1573004,Li2Mn2FeO6,1.2088,-7.440142764999999,-1.9583551688662482
mp-1208356,Ti4Fe(BiO3)6,0.46929999999999905,-7.633793041034483,-2.37670706770115
mp-1568135,Li2Fe(CO3)2,4.114199999999999,-7.493305881818181,-1.999400067424242
mp-757129,Li2Fe(CO3)2,3.515,-7.295872705454546,-1.801966891060606
mp-758926,LiFePO4,3.900399999999999,-7.499100923571428,-2.415349263282312
mp-1222343,LiZnFeO3,1.7135999999999991,-6.236572083333333,-1.8228102997222222
mp-1228547,Ba4Ta10FeO30,2.040699999999999,-9.647202176,-3.352668252740741
mp-1236165,LiTiFeO4,1.0421,-7.981668165714285,-2.543628149523809
mp-1274697,Li2FeNiO4,0.0,-6.438928270625,-1.706447315208333
mp-1235723,LiTiFeO4,1.3904,-8.000869438571428,-2.562829422380951
mp-2215853,MgTiFeO4,1.327699999999999,-8.08673285142857,-2.688471814047619
mp-2215998,MgTiFeO4,0.33029999999999904,-8.017777884285714,-2.6195168469047623
mp-19864,Ca2FeWO6,2.7594000000000003,-8.059492791,-2.546781067999999
mp-756484,Li2TiFeO4,0.0,-7.498514879375,-2.501614506874999
mp-765697,Li2TiFeO4,0.897899999999999,-7.5560852956249995,-2.559184923124999
mp-1047527,Ca2YFeO5,0.927999999999999,-7.788604337222223,-2.929702393333334
mp-1043304,Sr2FeCu2O7,0.0,-6.255471439583332,-1.6980532924999991
mp-1035435,LiMg14FeO16,2.6398,-6.40355617125,-2.891903034791666
mp-1035626,Mg14NbFeO16,0.907999999999999,-6.551797341875,-2.7841322625
mp-1035602,Mg14CrFeO16,2.411599999999999,-6.602429710937501,-2.848772680625
mp-1035624,SrMg14FeO16,4.1301,-6.358549494375,-2.8536618196875
mp-1035743,Mg14FeCoO16,0.40740000000000004,-6.4533671315625,-2.7784485621874992
mp-1035654,Mg14FeBO16,2.0291,-6.409975886874999,-2.7492455971614573
mp-1035698,Mg14VFeO16,2.820099999999999,-6.6064842437500015,-2.8706128821875003
mp-1035481,NaMg14FeO16,2.5933,-6.346851129062499,-2.852923057855602
mp-1035518,Mg14CdFeO16,3.8563,-6.282662574374999,-2.800662959062499
mp-1035480,Mg14FeCO16,2.499799999999999,-6.3559888934375,-2.615593799921875
mp-1035541,HfMg14FeO16,0.15530000000000002,-6.603157794375,-2.8399963403125
mp-1035540,Mg14FeBiO16,0.8956000000000001,-6.2342246084375,-2.660661739374999
mp-1035697,KMg14FeO16,2.0092,-6.2443518159375,-2.756997215226562
mp-1035726,Mg14TiFeO16,0.0,-6.5539097565625,-2.855176334166666
mp-1035557,RbMg14FeO16,0.0,-6.1715864875,-2.688945500859375
mp-1035662,BaMg14FeO16,3.7331000000000003,-6.257255746875,-2.745288483125
mp-1035790,Mg14FeNiO16,3.208599999999999,-6.447504761875001,-2.814876193750001
mp-1035831,Mg14ZnFeO16,2.4189,-6.3433309525,-2.8519646678124992
mp-1035796,Mg14FeCuO16,0.057100000000000005,-6.36930681625,-2.7892073109375
mp-1036012,Mg14FeSnO16,2.7164,-6.319361581874999,-2.742063164531249
mp-1036237,Mg14MnFeO16,1.7607,-6.60283881,-2.864526535247845
mp-1036118,YMg14FeO16,0.0,-6.530778091249999,-2.875369684999999
mp-1036463,CaMg14FeO16,2.6849,-6.438442069374999,-2.923767776249999
mp-1295905,Sr2FeSnO6,0.0,-6.939332783999999,-2.384111256499999
mp-1101238,V4FeCuO12,0.392399999999999,-8.105411411666667,-2.089834510555556
mp-1101192,V4CrFeO12,0.029599999999999002,-8.56907883,-2.244955217777778
mp-1176412,MnV4FeO12,2.0082,-8.559092266111112,-2.262248219329502
mp-1177976,Li2FeCo3O8,0.0,-6.767186340178571,-1.5334859727976191
mp-1195386,FeC4N2O9,0.0,-7.099835782916667,-0.437780300729167
mp-1222633,Mg4FeClO13,0.0,-5.139472555263158,-0.8676867134210531
mp-1224904,Ga2Fe(PO4)3,2.824,-7.502012928333332,-2.493781489940475
mp-1277038,Li2TiFeO4,1.1097,-7.562735891875,-2.565835519374999
mp-1304342,Li2TiFeO4,1.1218,-7.5571589465625,-2.5602585740625
mp-1571236,Li2Fe(CoO3)2,1.025,-6.711697007727272,-1.5987455156060602
mp-1640067,Li2Fe(CoO3)2,0.5655,-6.727829515,-1.614878022878788
mp-1375556,Ca2FeRhO6,0.0,-6.815567351,-1.862237863999999
mp-18878,LiFeAs2O7,2.5882,-6.766765501818182,-1.825409485757576
mp-1666404,Li3V4FeO12,1.8668,-7.8279033915,-2.3325060840000003
mp-2217976,MgFeP2O7,3.4381999999999993,-7.480925078181817,-2.4293645953896092
mp-2218028,MgFeAs2O7,1.5862,-6.884323086363636,-1.968280965909091
mp-2226954,MgFeAs2O7,2.097,-6.754255581818182,-1.838213461363636
mp-26049,Li3Fe(PO3)8,0.0,-7.336571452777779,-2.440136949087302
mp-26181,LiFeP2O7,2.5296000000000003,-7.585439515454545,-2.508565137056276
mp-697764,LiFeP2O7,2.502099999999999,-7.5812895461363645,-2.5044151677380952
mp-753407,LiFePO4,3.5661,-7.469694254999999,-2.385942594710883
mp-756231,TiV4FeO12,0.7597,-8.61904190388889,-2.392560261296298
mp-756657,V4FeCoO12,0.0,-8.342430921666667,-2.158286795555556
mp-756937,V4FeNiO12,0.0,-8.257939893888889,-2.148977992222222
mp-771207,Li4FeNi5O12,0.0,-6.07577843909091,-1.331145341969697
mp-774648,Li3V4FeO12,0.0,-7.8129060265,-2.317508719000001
mp-850404,Li2FeO2F,1.9149,-6.30890769125,-2.292634136527777
mp-863081,Li2CrFeO4,1.9803000000000002,-7.382322267916666,-2.165727463749999
mp-772533,FePO4F,0.0,-6.983553932678572,-1.899098056913266
mp-1188386,FeHgO2F5,0.0,-4.417265138888889,-1.278945457500001
mp-1203720,FeCo2BO5,0.0,-7.7679970925,-1.750658042962963
mp-1207651,YMnFeO5,1.1209,-8.61780832875,-2.507691700366379
mp-1213032,ErMnFeO5,1.1587,-8.397782490625,-2.530337448491378
mp-1221879,MnFeBiO5,0.37319999999999903,-7.537358584375,-1.7546241047413802
mp-1210692,Mg2FeBO5,2.085699999999999,-7.472302539722222,-2.67784053574074
mp-1212984,DyMnFeO5,1.146,-8.39967307875,-2.525895946824713
mp-21522,FeNi2BO5,1.6665,-7.551591123055555,-1.8349809712962952
mp-616515,MnFeBiO5,0.0,-7.4772498912500005,-1.694515411616381
mp-757693,Li2FeCO5,0.032699999999999,-7.037388035833334,-1.8977949846296291
mp-1203339,Ca2FeCoO5,0.0,-7.212062368611111,-2.283790955833333
mp-758321,LiFe(PO3)3,4.1437,-7.570275349285715,-2.487631513732993
mp-510742,Na2LiFeO4,0.0,-5.623914313749999,-1.5171356070114932
mp-540965,Na2Li3FeO4,3.032299999999999,-5.56301586725,-1.8958083285258611
mp-641117,La5Ti4FeO17,0.0,-9.099852582777778,-3.58698732771605
mp-761233,Li3FeO2F,2.812299999999999,-5.897644953214285,-2.182421496785714
mp-756503,Li4Fe(BO3)2,4.0062,-6.9829369075,-2.432762888397436
mp-1177103,Li5FeO3F,2.4707,-5.404695803,-1.927458709666667
mp-1223299,Mn2Fe(PO4)3,0.710599999999999,-8.083627356805557,-2.393849332905036
mp-755192,FeSb3(PO4)4,1.3695,-7.332330902916667,-2.262068606607142
mp-755553,FeNi3(PO4)4,0.0,-7.300499320416667,-2.023845094107143
mp-756786,Mn3Fe(PO4)4,0.5387000000000001,-8.10480863125,-2.405419578431856
mp-767833,MnFe(PO4)2,0.5022,-8.042527365,-2.371971398934728
mp-771952,FeCo3(PO4)4,0.6416000000000001,-7.5524784775,-2.106664246190476
mp-774656,Li5Ti6FeO16,2.277199999999999,-8.197133708571428,-3.034456432738094
mp-771061,MnFeBO4,0.0,-8.48648909642857,-2.186021626013957
mp-775297,FeCu3(PO4)4,0.0,-7.041344861666666,-1.974806886607143
mp-849792,Mn11Fe(PO4)12,0.438799999999999,-8.145265366250001,-2.426654255596607
mp-1196275,BaFeOF5,0.8303,-5.7343966671875,-2.6211192884375
mp-1199538,Mn2FeP2O11,0.23639999999999903,-7.741252499375,-1.987966880634236
mp-25977,LiFe(PO3)4,2.937999999999999,-7.6283771174999995,-2.549689882050263
mp-759046,LiFe(PO3)4,1.4224,-7.542541142499999,-2.463853907050263
mp-818654,Na2FePO5,0.0,-6.896437427638889,-2.3065772812390533
mp-1042918,ZnFeBiO5,0.0,-6.2156338775,-1.420683358125
mp-1042711,CaFeBiO5,0.0,-6.690165653125001,-1.801983100000001
mp-1042813,MgFeBiO5,0.0,-6.569415955,-1.728124635
mp-1205067,KNa4FeO4,2.0784,-5.100370358500008,-1.624358551776732
mp-510510,FeP(H2O3)2,2.6924,-6.569422690104166,-1.806595480074404
mp-556373,NaFe(TeO3)2,2.1497,-6.251191343875,-1.672579363346264
mp-543041,FeAs(H2O3)2,2.8784,-6.1898344610416665,-1.48911983375
mp-757227,LiFePO4,3.3962,-7.479342106071428,-2.395590445782312
mp-757582,Li4FeP2O9,1.1233,-6.8889075787500005,-2.422138280476191
mp-757351,Li2Fe(PO4)2,0.0,-7.229673222596153,-2.406403835361721
mp-780594,Li2Fe(SO4)2,4.4041999999999994,-6.721189563557692,-2.09439924676282
mp-818725,FeB6(CO)4,1.6619000000000002,-6.7573476978333336,0.259510823833333
mp-765604,LiFePO4,3.6209,-7.5063425200000005,-2.4225908597108843
mp-1043619,FeNiP2O9,0.0,-7.187124298653846,-1.8322970689835172
mp-1104614,CaFeSeO,1.917199999999999,-6.611070188749999,-1.881196795585936
mp-1097054,KCe2FeO6,0.8443,-7.9275100655,-2.811204395225
mp-1176443,MnFeBO4,0.9277000000000001,-8.511808106785713,-2.2113406363711
mp-1176761,LiFePO4,3.9108,-7.495304028928571,-2.411552368639455
mp-1178139,KLi2FeO3,0.738,-5.588939372857142,-1.551350846988095
mp-1182106,FeH2Cl5O3,2.0017,-4.157552147727273,-0.580559383863636
mp-1181403,FeN2Cl5O,0.25420000000000004,-4.104005058333333,0.266800686666666
mp-1192859,NaFePO4,0.5337000000000001,-7.373558577142857,-2.370835786574594
mp-1195207,BaYFeO4,1.7746,-8.151619938392857,-2.910201128392857
mp-1196862,Na2Fe(SO5)2,0.443899999999999,-6.206902514000001,-1.6129163838505751
mp-1196996,K2FeCl5O,0.361,-4.193566666388889,-1.424296037444444
mp-1199883,Rb2FeCl5O,0.8704000000000001,-3.850299821944444,-1.114548226388888
mp-1201709,FeN2Cl5O,0.18079999999999902,-4.071325412499999,0.2994803325
mp-1204931,FeCu2As3O11,0.0,-6.12692018382353,-1.120662936617647
mp-1208422,TlCr2FeO8,2.0252,-7.434589870208334,-1.623650177986111
mp-1210634,MgFeBO4,1.8677000000000001,-7.764027045,-2.539494614166666
mp-1210660,NaFe(SO4)2,2.1127,-6.730858803958333,-1.924846373656609
mp-1213458,FeH4Cl5O,1.8829,-3.734595273636364,-0.439928794545454
mp-1214173,Ca2CrFeO5,1.7324000000000002,-7.8185143075,-2.6102839225
mp-1221054,NaFeRuO4,0.0,-7.144234564642857,-1.5902362005541861
mp-1222485,LiTiFeO4,1.9847000000000001,-8.017119435357142,-2.579079419166665
mp-1225460,FeH9(SO6)2,2.5427,-5.966445077708333,-1.52149631296875
mp-1303296,LiNbFeO4,2.1653000000000002,-8.209189823214285,-2.456033660833332
mp-1290528,Li2TiFeO4,1.7837,-7.5651258396875,-2.5682254671875
mp-19017,LiFePO4,3.922399999999999,-7.563647674999999,-2.4798960147108833
mp-19226,NaFePO4,1.2607,-7.413970674642856,-2.411247884074594
mp-20028,FeBPbO4,2.1228,-7.607812850714284,-2.08582655488095
mp-26125,Li2Fe(PO3)4,4.189999999999999,-7.495650527894736,-2.583792996065161
mp-504583,FeCoBO4,0.2672,-7.995264762857142,-1.984597088452381
mp-504863,KNa2FeO3,0.5024000000000001,-5.557449667142857,-1.681918880715516
mp-504649,RbCr2FeO8,1.9996,-7.490266600208333,-1.795238411666666
mp-505314,Ca2MnFeO5,0.0,-7.671087016666667,-2.517415762547893
mp-505811,FeCuPO5,0.0,-7.2934412753125,-1.9528779715178581
mp-510641,LiFeAsO4,2.2859,-6.9008918875,-1.92361894047619
mp-542158,FeNiPO5,0.0,-7.628185613125,-2.077506058080357
mp-542157,FeCoPO5,0.1222,-7.7310804021875,-2.011240842142856
mp-648745,NaTiFeO4,2.248,-7.856418576785714,-2.499407430316092
mp-645796,TlFe(MoO4)2,2.5843,-7.838779752083334,-1.829072953194446