Material_ID,Formula,Band_Gap,Energy_per_Atom,Formation_Energy_per_Atom
mp-754087,Li3Fe2(SiO4)2,1.661799999999999,-7.388559987333333,-2.515150979333333
mp-756019,Li3Si2(NiO4)2,1.005299999999999,-6.816043648000001,-2.301285910666666
mp-757422,LiMn(SiO3)2,0.7473000000000001,-7.947373504375001,-2.786439479501438
mp-758078,Li2Co3(SiO4)2,2.4703,-7.352315777111111,-2.308821110888888
mp-758113,LiFe2(SiO4)2,0.0,-7.665912313076922,-2.336428514102564
mp-758567,Li3Co2(SiO4)2,0.212599999999999,-7.089276912000001,-2.394081836
mp-759106,Li2Fe3(SiO4)2,2.4332000000000003,-7.7020422233333345,-2.391226659111112
mp-764102,Li3Fe2(SiO4)2,0.9512,-7.370486381666666,-2.497077373666666
mp-764516,Li3Co2(SiO4)2,0.5178,-7.056293357333334,-2.361098281333334
mp-764452,Li3Co2(SiO4)2,0.23390000000000002,-7.099617568666668,-2.404422492666667
mp-766974,Li2Si2Ni3O8,3.155699999999999,-6.988596227777778,-2.215757569555556
mp-767320,Li3Co2(SiO4)2,0.38830000000000003,-7.066965178,-2.371770102
mp-768071,Li5Mn17(SiO16)2,0.43310000000000004,-8.135806985714286,-2.162873726455255
mp-772502,LiFe(SiO3)2,2.6008,-7.813039426,-2.721304809333334
mp-780681,LiFe3(SiO4)2,0.6455000000000001,-7.9163187245238085,-2.362510824761903
mp-849556,Li2Mn3(SiO4)2,2.2669,-8.042179305777777,-2.592964925141763
mp-849520,LiCo3(SiO4)2,0.005200000000000001,-7.472713035000001,-2.205320383095239
mp-850922,Li3Fe2(SiO4)2,1.861499999999999,-7.356256293333333,-2.482847285333333
mp-859107,LiCr(SiO3)2,2.107299999999999,-8.082220863,-2.872183620333332
mp-2217378,MgCu2(SiO3)2,0.0,-6.745648939090909,-2.166804807727272
mp-756673,Li9Cr5(SiO8)2,2.8676,-7.383475498125,-2.5252393953125
mp-767668,Li9Fe5(SiO8)2,1.7383000000000002,-6.9087975296875,-2.23540928
mp-560407,KNbSi2O7,3.5204,-8.267687514999999,-3.111411346113635
mp-1192641,Sr2Ti(SiO4)2,3.8662,-8.171356058461539,-3.424073574102564
mp-19179,Ba2V(SiO4)2,2.6343,-8.084068993846126,-3.210516682307664
mp-6081,Ba2Ti(SiO4)2,3.7274000000000003,-8.225762276923076,-3.44362643102564
mp-1182031,CaAl2(SiO5)2,0.0,-6.974204285,-2.319071108333333
mp-1194156,CaAl2(SiO5)2,0.0,-7.322658881666667,-2.667525705000001
mp-1194392,SrAl2(SiO5)2,0.0,-7.306510281333334,-2.672255224000001
mp-1218300,SrMn2(SiO5)2,0.0,-7.668890729666667,-2.312443744057471
mp-1197716,BaCu(SiO3)2,0.6395000000000001,-7.521833008375,-2.866174638375001
mp-11613,Ba2CuSi2O7,0.1831,-7.409294562083333,-2.9573345916666662
mp-1191240,Sr2ZnSi2O7,3.8987,-7.3586738725,-3.181093632083333
mp-1190662,Eu2MnSi2O7,0.0,-9.420032780833333,-3.15131592941092
mp-1191740,Sr2MnSi2O7,2.8825000000000003,-8.046011655416667,-3.209908774827586
mp-1214106,Ca2GaSi2O7,0.19459999999999902,-7.397240989166666,-3.020102749374999
mp-15748,Sr2CuSi2O7,0.0,-7.392710505,-2.9785083429166663
mp-1208846,Sr2CoSi2O7,3.4006,-7.759067428125,-3.092014428541667
mp-1214098,Ca2AlSi2O7,0.0,-7.650764421666666,-3.213836197916665
mp-18786,Ca2CoSi2O7,3.056,-7.786125236875001,-3.066876938958333
mp-510015,Ba2CoSi2O7,3.138099999999999,-7.764213357916667,-3.05940255
mp-6094,Ca2MgSi2O7,4.467700000000001,-7.635305335416667,-3.374635929583332
mp-6208,Ca2BeSi2O7,4.9868,-7.826585504583334,-3.39017086125
mp-6227,Ca2ZnSi2O7,4.0553,-7.38619089375,-3.156415355
mp-6564,Sr2MgSi2O7,4.495900000000001,-7.607324004166666,-3.398849896666666
mp-677780,Ca2MgSi2O7,4.233600000000001,-7.481577315833333,-3.220907909999999
mp-9338,Ba2MgSi2O7,4.4529,-7.6098791475,-3.363647231666667
mp-982662,Eu2MgSi2O7,0.011800000000000001,-8.982979062916666,-3.341890984583333
mp-1019792,K2ZrSi2O7,4.520300000000001,-7.8753651446875,-3.183964880479166
mp-1044487,Cu13Si2(SbO14)2,0.0,-5.586409245111112,-0.898826280888888
mp-1044616,Si2Sb2Mo13O28,0.0,-8.34739960911111,-1.710844095555554
mp-1044615,Cr13Si2(SbO14)2,0.18659999999999902,-8.316296176444446,-2.024270314444445
mp-1176748,LiCu3(SiO3)2,1.601,-6.680007018333334,-2.117928271111111
mp-1176994,Li7V3(SiO6)2,1.654399999999999,-7.230990223541666,-2.612642457013888
mp-1180497,MgU2Si2O17,0.0,-7.475320570909091,-2.058081335454545
mp-1190722,MgU2(SiO8)2,0.0,-7.527435490476189,-2.087849672619046
mp-1191161,MgU2(SiO9)2,0.0337,-7.146732106956522,-1.7498962728260872
mp-1198539,K2ZrSi2O7,0.8795000000000001,-7.436757470729166,-2.745357206520832
mp-1201235,KSi2HO5,4.768800000000001,-7.242151979166667,-2.7847100628888892
mp-1211186,MgU2(SiO9)2,0.0,-6.931525176086956,-1.534689341956521
mp-1221321,Na2Sr(SiO3)2,3.9888,-7.078903591515152,-2.995787979038663
mp-1331450,Mn13Si2(SbO14)2,0.0,-8.078020136000001,-1.927848014291188
mp-2219637,MgTi2(SiO4)2,0.17870000000000003,-8.154496257692308,-2.934821015512821
mp-2219565,MgTi2(SiO4)2,0.0,-8.138956202307693,-2.919280960128205
mp-553950,Li10Si2PbO10,2.984599999999999,-6.102568511304348,-2.488128431014492
mp-554752,RbLi7(SiO4)2,4.8727,-6.233243534444444,-2.634503632268519
mp-555097,Tb3Si2Cl5O6,4.689599999999999,-7.21262094125,-3.231703675
mp-557092,Y3Si2Cl5O6,4.5564,-7.542845260937501,-3.211072767812501
mp-556820,Sm3Si2Cl5O6,4.6078,-7.217401828125,-3.2213490909375
mp-560513,Gd3Si2Cl5O6,2.531,-8.965306686562501,-3.214715929687502
mp-560593,Dy3Si2Cl5O6,4.7463999999999995,-7.206324166562499,-3.229060918124998
mp-752502,Li7Cr3(SiO6)2,3.344,-7.265082901666666,-2.575592460138888
mp-753111,Li7Fe3(SiO6)2,1.7107,-6.87685314375,-2.335240984722222
mp-756986,Li7Si2(NiO4)3,0.0,-6.331742543333333,-2.126365950555555
mp-756983,Li10Cu(SiO5)2,0.35100000000000003,-6.031818155434783,-2.4005711360144932
mp-758900,Li10Fe(SiO5)2,1.8235000000000001,-6.268372715000001,-2.4470902807971022
mp-767011,Li7Mn3(SiO6)2,1.335999999999999,-7.055421898749999,-2.427310479463601
mp-765779,Li10V(SiO5)2,0.853599999999999,-6.319953508478261,-2.471980428188406
mp-767066,Li10Si2NiO10,2.6443,-6.119977819347826,-2.415646886449274
mp-767255,Li10Cr(SiO5)2,0.6698000000000001,-6.331878896304347,-2.459160537753622
mp-766202,Li7Ti3(SiO6)2,0.0,-7.326218423333334,-2.856422413472222
mp-780653,Li10Mn(SiO5)2,0.9872999999999991,-6.335168773043478,-2.48379963962019
mp-860886,Li7Cu(SiO4)2,1.1318,-6.218344686388889,-2.4463451954629623
mp-1223321,KTaSi2O7,3.5987,-8.528778220681817,-3.211990915189393
mp-560631,KUSi2O7,0.5523,-8.601186001363637,-3.33671847156818
mp-1182662,BaCu(SiO3)2,0.612699999999999,-7.510611071375,-2.854952701375
mp-1201761,BaCu(SiO3)2,0.010599999999999,-7.49101750025,-2.83535913025
mp-555332,BaCu(SiO3)2,0.0,-7.5113259495,-2.855667579499999
mp-1019580,CaMg(SiO3)2,4.8477,-7.679144609,-3.261697410499999
mp-1177702,Li3Fe2(SiO4)2,1.5291000000000001,-7.396237105,-2.522828097
mp-1179961,PrYSi2O7,4.7892,-8.676592755227274,-3.513781295833332
mp-1180672,PrYSi2O7,3.9259,-8.562366284772727,-3.399554825378787
mp-1180540,LiSc(SiO3)2,4.957599999999999,-8.21806405575,-3.340084649583333
mp-1195073,Al2Si2PbO8,4.2562,-7.846700326442307,-3.105306262596153
mp-1195642,Mg5Si2(O4F)2,4.9129000000000005,-7.002607210000001,-3.331173155588235
mp-1196145,Al2Si2PbO8,4.2501,-7.845289276057692,-3.103895212211538
mp-1198547,CaU2Si2O17,0.2611,-7.46134855340909,-2.027057960454544
mp-1198731,NaTb(SiO3)2,4.701799999999999,-7.9835575565,-3.331758907304598
mp-1199799,CaU2Si2O17,0.0014999999999990002,-7.376551622613636,-1.94226102965909
mp-1201353,PrYSi2O7,5.1978,-8.788937035681819,-3.626125576287879
mp-1202030,Ce2AlSi2O9,0.026399999999999,-8.604772055535715,-3.533217721607143
mp-1202413,CaU2(SiO8)2,0.0,-7.544635512380952,-2.087186367619046
mp-1204174,Rb2USi2O9,0.6575000000000001,-7.733972831339286,-2.8314897413392863
mp-1207840,Y4Si2NO8,0.0,-9.014355343666667,-3.360424154
mp-1210737,MgCr(SiO3)2,1.9225,-8.128051579,-2.9458596215
mp-1212767,NaSi2W2O5,0.0,-7.521774549,-1.23693231663793
mp-1214455,BaFe2Si2O7,0.0,-8.12330332,-2.7611882820833342
mp-1222195,Mg3Fe(SiO4)2,3.5972,-7.540254960714285,-2.9834152924999993
mp-1222979,LaHoSi2O7,4.9618,-8.6765587525,-3.674736055681818
mp-1228769,CaAl2(SiO6)2,0.29699999999999904,-6.992034368088235,-2.30245085867647
mp-1246991,Sr2MgSi2O7,4.5031,-7.5813006168750015,-3.372826509375
mp-14235,SrGa2(SiO4)2,3.9438,-7.463153856153846,-2.987542761153846
mp-15004,Ca3ZrSi2O9,4.4939,-8.201890329166668,-3.538771304166668
mp-15095,Ca3Si2SnO9,3.5852,-7.559448368666667,-3.198871262
mp-15003,Ca3HfSi2O9,4.7635000000000005,-8.339725046833333,-3.582640128499999
mp-17468,SrZrSi2O7,4.7096,-8.570298969090908,-3.504254258636362
mp-19061,LiFe(SiO3)2,2.7521999999999993,-7.84764724925,-2.755912632583333
mp-510529,LiCr(SiO3)2,3.2645,-8.13500174825,-2.924964505583332
mp-540871,Na2Mn2Si2O7,2.498499999999999,-7.755530804807692,-2.640620402009283
mp-542874,LiAl(SiO3)2,5.5106,-7.8108411592500016,-3.191551080583333
mp-555596,K6Si2S6O,3.1497,-4.743288218999998,-1.582156698566664
mp-557679,KNaSi2O5,4.5364,-7.135680984722223,-2.906399697347701
mp-557656,RbNaSi2O5,4.4435,-7.116775658888888,-2.904253888208812
mp-558079,Ca3Mg(SiO4)2,3.9467,-7.465655324999999,-3.316970056785713
mp-558129,KNaSi2O5,4.4523,-7.133879989444444,-2.904598702069923
mp-558209,Ca3Mg(SiO4)2,4.894299999999999,-7.529847161785715,-3.381161893571428
mp-559083,Ca2MgSi2O7,4.6043,-7.632599876041667,-3.371930470208333
mp-559489,K2ZrSi2O7,4.524699999999999,-7.877544281458333,-3.186144017249999
mp-559840,LiV(SiO3)2,1.8873000000000002,-8.11550232475,-2.9623792220833343
mp-560039,NaY(SiO3)2,4.709,-8.160129038000001,-3.321207601137931
mp-560163,Ca4Si2O7F2,4.8233,-7.452410687666667,-3.629979529999999
mp-6099,LiSc(SiO3)2,4.9634,-8.21878442875,-3.340805022583333
mp-6091,BaAl2(SiO4)2,4.819699999999999,-8.057719842307693,-3.454300557692307
mp-6241,LiGa(SiO3)2,4.4399999999999995,-7.436904816,-2.8893627180833343
mp-6753,Ca5Si2C2O13,4.9049,-7.818299108636364,-3.106505494545455
mp-6796,Ca5Si2CO11,4.6831,-7.707883127368421,-3.258679337499999
mp-680387,PrYSi2O7,0.618999999999999,-8.336810907272728,-3.173999447878787
mp-721586,BaSi2(H3O4)2,5.0579,-6.52198691117647,-2.244087048088235
mp-757781,LiSi2(BiO3)3,3.1438,-6.955330556000001,-2.357909829222223
mp-758171,Li2Cr2Si2O7,1.1063,-7.870266375384616,-2.5925507008974362
mp-758338,Li2Co2Si2O7,2.8478,-7.338173131538462,-2.448092957051282
mp-759054,Li2Cu2Si2O7,0.18629999999999902,-6.667623919423077,-2.244345291089743
mp-759016,Li2Fe2Si2O7,3.0866,-7.619115857115385,-2.523404222628204
mp-766586,Li2Si2Ni2O7,3.2881,-7.079803173653847,-2.397919928397435
mp-772591,Li2Mn2Si2O7,2.7301,-7.885468560384615,-2.683296297886825
mp-780866,LiFe2Si2O7,2.013,-7.8710745922916665,-2.5097972271527773
mp-1020598,Y4Si2S3O7,2.4972,-8.48272690765625,-3.2366139203125
mp-1204595,Gd4Si2S3O7,1.186599999999999,-10.380808645625,-3.242937973281249
mp-14837,Sm4Si2Se3O7,2.3907,-7.864254822187499,-3.186227192939452
mp-14835,Nd4Si2S3O7,2.593499999999999,-8.05693850578125,-3.246061535312499
mp-16159,Pr4Si2S3O7,2.5994,-8.05261699578125,-3.234909018854166
mp-15897,La4Si2S3O7,2.5019,-8.176235937187501,-3.323394048593751
mp-16591,Tm4Si2S3O7,2.748999999999999,-7.9927874921874995,-3.253322009843751
mp-14912,La4Si2Se3O7,2.2305,-7.9946070434375,-3.262224171689453
mp-16587,Dy4Si2S3O7,2.68,-8.035132817500001,-3.261698823072915
mp-14836,Pr4Si2Se3O7,2.3921,-7.8677583014062495,-3.170509341324869
mp-15016,Nd4Si2Se3O7,2.3918,-7.870052884531249,-3.179634930908202
mp-16590,Tb4Si2S3O7,2.6586,-8.044995612343751,-3.266689594166667
mp-558965,Gd4Si2Se3O7,1.0029,-10.1920314971875,-3.174619841689453
mp-561726,Ce4Si2S3O7,0.0,-8.279703614375,-3.176626034531249
mp-541460,Ce4Si2Se3O7,0.0,-8.09340105359375,-3.110782490595702
mp-6316,Er4Si2S3O7,2.720799999999999,-8.01747714375,-3.256707328906248
mp-6757,Ho4Si2S3O7,2.7047,-8.024962757812501,-3.256702779218749
mp-6671,Sm4Si2S3O7,2.6038,-8.0547623746875,-3.256275728593751
mp-1019719,CsSi2BO6,5.3918,-7.865090726125,-3.052513583007184
mp-1228003,Ca3Al2(SiO6)2,0.0,-7.290593719210527,-2.883534802368421
mp-562920,CsAl(SiO3)2,4.8796,-7.760606773000001,-3.241411223965518
mp-565843,BaCu(SiO3)2,0.510699999999999,-7.520605997500001,-2.8649476275000003
mp-1235354,LiTl6Si2O7,0.0,-5.493012708125,-1.641505291770835
mp-1224146,K3Np3Si2O13,0.0,-8.62789392857143,-3.036866436333334
mp-1226117,Er2Si2PbO8,3.3232,-8.12553881128205,-3.257661212051281
mp-1019535,BaAl2(SiO4)2,4.9116,-8.053065862307692,-3.449646577692308
mp-557690,Si2Mo4P6O25,1.8837000000000002,-8.30581767054057,-2.6186527306177902
mp-556703,Ba3Mg(SiO4)2,4.6934000000000005,-7.451487899523809,-3.321365118452381
mp-697022,Ca6Si2H6O13,3.4958,-6.724703602592593,-2.7403063049074072
mp-752892,Li2Fe2Si2O7,3.095199999999999,-7.5789471296153845,-2.483235495128204
mp-1020661,NaAl(SiO3)2,4.6427,-7.738209240624999,-3.175639370762931
mp-1019549,BaMg2Si2O7,4.558,-7.516888071041667,-3.294698232291667
mp-1046967,ZnSi2SnO6,3.0614,-7.143781649,-2.5630098935000003
mp-1046947,MgSi2SnO6,3.1491,-7.459905587,-2.842061191
mp-1154479,MgFe(SiO3)2,3.5596,-7.945566324,-2.881676992500001
mp-1154753,MgCo(SiO3)2,0.040699999999999,-7.751764196750001,-2.821535314250001
mp-1163919,ZnSi2WO6,0.0,-7.795823588,-2.320195995
mp-11206,LiTi(SiO3)2,0.0,-8.168318998,-3.134037300666667
mp-1157256,CaCr(SiO3)2,0.0,-8.28651582275,-3.066810878749999
mp-1132757,MgV(SiO3)2,2.074,-8.13027863275,-3.00500081525
mp-1154515,MgTi(SiO3)2,0.0,-8.028898972499999,-3.022462560333333
mp-1157680,CaTi(SiO3)2,0.0,-8.2031826515,-3.1592332528333342
mp-1133299,CaV(SiO3)2,1.4277,-8.301079493,-3.1382886890000012
mp-1171226,MnZn(SiO3)2,2.2211,-7.819205651,-2.7231895517931033
mp-1191311,Ba2MgSi2O7,4.43,-7.605612544166667,-3.359380628333333
mp-1194510,Al2Si2PbO8,4.3038,-7.845902415961538,-3.104508352115384
mp-1196057,BaMn2Si2O7,2.6464,-8.412050859374999,-2.9346034744468383
mp-1202699,Na2Ti(SiO4)2,0.021199999999999,-7.349638473653846,-2.6563109602763033
mp-1205386,SrAl2(SiO4)2,4.6875,-8.027288969807692,-3.441296365961538
mp-1210573,MgCr(SiO3)2,2.3544,-8.1584784325,-2.976286475
mp-1226977,CaAl4(SiO6)2,2.8867000000000003,-7.667031465526317,-3.0768171855263162
mp-1248614,MgCu(SiO3)2,0.1516,-7.317943228999999,-2.691135351499999
mp-1248912,ZnCr(SiO3)2,0.0665,-7.8285850525,-2.6834657355
mp-1249297,SrAl2(SiO4)2,0.49469999999999903,-7.325606018653845,-2.739613414807692
mp-1248580,MgCr(SiO3)2,2.4206,-8.127852375,-2.945660417499999
mp-1248625,MgMn(SiO3)2,3.4018,-8.12220104,-2.989112300293103
mp-1249045,VZn(SiO3)2,0.5847999999999991,-7.825648133,-2.737442956
mp-1255815,CaSi2SnO6,2.8773,-7.576560356,-2.9212029735
mp-1250134,CaCu(SiO3)2,0.0,-7.466292016500001,-2.8019711525
mp-1255465,ZnCu(SiO3)2,0.24300000000000002,-7.014924098500001,-2.4251888615
mp-1253396,CaSi2WO6,1.3219,-8.1878867645,-2.6376735444999992
mp-1258028,ZnSi2NiO6,3.9418,-7.3062023945,-2.548374156499997
mp-1255447,ZnFe(SiO3)2,3.1041,-7.6418720065,-2.6150553155000003
mp-1259496,MgSi2NiO6,4.5639,-7.61435510825,-2.819454229749999
mp-1260708,CaMnSi2O7,0.7001000000000001,-8.012157711590909,-2.861796050948276
mp-1263932,TiZn(SiO3)2,0.0,-7.7249410165,-2.755577244833333
mp-1264233,ZnCo(SiO3)2,2.5473,-7.446731714250001,-2.5535754722500013
mp-1373844,MgSi2WO6,0.42860000000000004,-7.9895479905,-2.476847757
mp-1642504,Li7Si2(NiO4)3,0.6376000000000001,-6.334963368749999,-2.1295867759722222
mp-17979,BaAl2(SiO4)2,4.7813,-8.055678440576923,-3.452259155961539
mp-18890,CaFe(SiO3)2,3.6902,-8.11270603025,-3.01130371225
mp-18727,LiCr(SiO3)2,3.0382,-8.13461640075,-2.924579158083332
mp-19367,NaCr(SiO3)2,3.0616,-8.047172372499997,-2.893855338637928
mp-18894,CaCo(SiO3)2,1.1736,-7.917340188,-2.949598319
mp-19043,LiV(SiO3)2,0.0,-8.11990386,-2.9667807573333342
mp-19220,CaSi2NiO6,4.5227,-7.781383016249999,-2.948969151249999
mp-19349,NaMn(SiO3)2,2.884699999999999,-7.8879680585,-2.7837542424310353
mp-19203,BaCo2Si2O7,0.044799999999999,-7.818173597083333,-2.6788259741666662
mp-19287,NaV(SiO3)2,0.0673,-8.04122801675,-2.944825122887931
mp-19446,CaMn(SiO3)2,2.8319,-8.283337329000002,-3.112735602793104
mp-21867,NaFe(SiO3)2,1.835799999999999,-7.764436356500001,-2.729421948637932
mp-510708,LiFe(SiO3)2,1.7991000000000001,-7.8474552415000005,-2.755720624833334
mp-543079,Rb5Si2NiO8,0.002,-6.075703098125,-2.25588240171875
mp-554198,CaMg(SiO)2,0.0,-5.710500999166666,-1.646729671666666
mp-554778,NaY(SiO3)2,5.042499999999999,-8.151314796333333,-3.312393359471265
mp-554641,Sr3Mg(SiO4)2,4.7048,-7.456936690714285,-3.375359663214285
mp-554826,Pr3Si2ClO8,5.140499999999999,-8.340829781071431,-3.578738700000001
mp-558629,Ba2ZnSi2O7,4.0027,-7.36153514375,-3.146197094999999
mp-558580,Na2Zn(SiO3)2,3.6116,-6.748805666818182,-2.705025007068965
mp-558985,La3Si2ClO8,4.411700000000001,-8.451039509285714,-3.6588336467857143
mp-560805,Ba2CuSi2O7,0.079599999999999,-7.396431160416667,-2.9444711900000002
mp-560830,Nd3Si2ClO8,5.1978,-8.343855989642858,-3.587620056964285
mp-562216,Ba2CoSi2O7,1.7828,-7.762825751249999,-3.058014943333333
mp-562517,CaMg(SiO3)2,4.627000000000001,-7.703533875,-3.286086676499999
mp-6124,NaAl(SiO3)2,5.2254,-7.7210635385,-3.158493668637931
mp-6240,LiIn(SiO3)2,3.6357,-7.3480629345,-2.8274130645
mp-6198,SrGa2(SiO4)2,4.0422,-7.44742412326923,-2.971813028269231
mp-6340,LiAl(SiO3)2,5.368399999999999,-7.813877793,-3.194587714333333
mp-6333,NaIn(SiO3)2,3.488599999999999,-7.261277246500001,-2.797347585304598
mp-6465,NaTi(SiO3)2,0.0,-8.079236468000001,-3.101674979471265
mp-645842,SrAl2(SiO4)2,0.2571,-7.306854414038461,-2.720861810192307
mp-6553,LiSc(SiO3)2,4.9196,-8.218761729499999,-3.340782323333333
mp-6693,CaZn(SiO3)2,4.056599999999999,-7.413358658,-3.0329841
mp-657543,SrAl2(SiO4)2,0.8073,-7.270288849807692,-2.684296245961538
mp-6822,NaGa(SiO3)2,4.1707,-7.3486465525,-2.857824663387931
mp-6766,CaMg(SiO3)2,4.9716000000000005,-7.7613118765,-3.343864678
mp-6745,LiGa(SiO3)2,4.2722,-7.4364167745,-2.888874676583333
mp-6759,BaGa2(SiO4)2,4.1576,-7.472922293653846,-2.979884517884614
mp-7074,NaSc(SiO3)2,4.950100000000001,-8.1390862575,-3.317827060137931
mp-727941,KAl4(SiO6)2,0.496299999999999,-7.248006166578947,-2.703804000118421
mp-752832,LiMn(SiO3)2,1.546,-7.947337995000001,-2.786403970126438
mp-753129,Li2Cr(SiO3)2,2.4332000000000003,-7.647881305454546,-2.737945369696969
mp-753527,Li2Mn(SiO3)2,3.3968,-7.670468562727273,-2.805171915872519
mp-753876,LiCo(SiO3)2,1.2402,-7.554042885000001,-2.595968717333335
mp-753951,Li2Fe(SiO3)2,3.221999999999999,-7.506192847727274,-2.703804753787879
mp-753447,LiMn(SiO3)2,1.2806,-7.9695214695,-2.808587444626437
mp-756249,Li2Si2NiO6,3.5463,-7.177424708181817,-2.6195715715151513
mp-758354,Li2Co(SiO3)2,3.2334,-7.348683109545456,-2.667804514696969
mp-759680,LiSi2BiO6,3.7375,-7.3688969965,-2.735161069833334
mp-760468,LiSi2BiO6,3.3613,-7.3484872455,-2.714751318833334
mp-1219334,Si2P3RhO13,2.0386,-7.809019366578949,-2.609816336522557
mp-1226884,Cd3Si2Pb3O10,1.3925,-6.106414336111111,-1.975957786666665
mp-1105877,Si2Ni3H4O9,3.2016,-6.747371596666666,-1.952740435555555
mp-23764,Mg3Si2H4O9,4.2447,-6.6887656755555565,-2.585745625277778
mp-557740,Mn13Si2SbO24,0.1655,-8.540573678166668,-2.219651172744254
mp-1019779,K2Mg2Si2O7,4.9573,-6.85322553076923,-2.92937610226923
mp-555982,Si2Ge3P6O25,3.7805,-7.638270786944444,-2.6129489563293653
mp-1210713,Mn13Fe(SiO11)2,0.0,-8.671020597894737,-2.163599593239565
mp-1214580,Ba3Cd(SiO4)2,3.565699999999999,-7.151586985,-3.069354191428571
mp-1227986,BaAl2(SiO4)2,4.3228,-8.037884066153847,-3.434464781538461
mp-628588,Fe4Si2Sn7O16,0.0,-7.161770214482758,-1.921594353620688
mp-1218484,SrAl2(SiO4)2,4.7024,-8.028888897307692,-3.442896293461538
mp-1227323,CaAl2(SiO4)2,4.729699999999999,-8.03650351423077,-3.426420772692307
mp-756291,LiV2(SiO4)2,0.8704000000000001,-8.133861721923077,-2.709934098333334
mp-1180494,Mg7Si2(H3O7)2,4.5577000000000005,-6.444907633793103,-2.586066983189654
mp-1221257,Na3YSi2O7,4.006699999999999,-7.347252653717949,-3.037974428267021
mp-555421,Na3TmSi2O7,3.96,-7.218308872307693,-3.064922186856765
mp-757466,Li3Si2BiO7,3.7846,-6.874382568333333,-2.635677491025641
mp-759383,Li3FeSi2O7,2.8033,-7.257716311538461,-2.666704549615384
mp-758792,Li3CrSi2O7,2.7192,-7.467977128846153,-2.785963346923076
mp-1195700,Na3HoSi2O7,3.969999999999999,-7.215067244358975,-3.052820713908047
mp-1207721,YSi2Ag3O7,1.3627999999999991,-7.029172915897436,-2.3734600212820522
mp-554463,Na3LuSi2O7,3.9465,-7.22694055474359,-3.070539563651635
mp-1020009,Li2Ca2Si2O7,4.7409,-7.293778459871794,-3.192593183846154