Material_ID,Formula,Band_Gap,Energy_per_Atom,Formation_Energy_per_Atom
mp-695000,LiMg6Sc(SiO3)8,3.2098,-7.501425790874999,-2.996980280333333
mp-1228423,Ba8Ti3Co(SiO4)8,0.23110000000000003,-8.052001681153847,-3.284521129423077
mp-1173098,Ba6Ti2Nb10Si8O51,2.3987,-8.780312285714286,-3.272955927683984
mp-1218616,Sr3CaAl8(SiO5)8,0.21950000000000003,-7.357334023666667,-2.7178594365
mp-1227193,Ca8ZnCo3(Si2O7)4,3.1325,-7.685389535,-3.088509426874999
mp-1227259,Ca8Zn3Co(Si2O7)4,3.151699999999999,-7.485680346458334,-3.133536617916667
mp-1173738,Na3Mg4ScSi8(O11F)2,4.619199999999999,-7.56820547425,-3.244082909228448
mp-1094103,NaMgAl3Si8(HO6)4,4.7203,-7.591026136585365,-2.958265346375105
mp-1173861,Na3Mg4InSi8(O11F)2,4.0872,-7.347187600000001,-3.112397419020115
mp-1223601,KNaSrMg5(SiO3)8,3.354599999999999,-7.33752845275,-2.975741527090733
mp-1223552,KNaCaMg5(SiO3)8,0.0007000000000000001,-7.447220322249999,-3.077604101840731
mp-1221470,Na2CaMg5Si8(O11F)2,4.5395,-7.4749746875,-3.2518051221939652
mp-1223575,KNaCaSi8Ni5O24,0.46030000000000004,-7.512615427,-2.624290873465733
mp-1223618,KNaCaCo5(SiO3)8,0.8687,-7.7006854575000006,-2.643200898965733
mp-1223917,K2CaMg5Si8(HO12)2,4.401999999999999,-7.382927412380953,-3.064721921
mp-684921,Na3CaAl4Si8ClO24,4.8258,-7.733056202195121,-3.220490091076535
mp-720205,Sr3Tm3Al4Si8N17O4,1.612,-7.560040586410255,-1.445881561923077
mp-1219651,RbNaCaTh(Si2O5)4,4.934799999999999,-8.12427617921875,-3.308542512933728
mp-1223475,KNaCaTh(Si2O5)4,4.908,-8.1310748928125,-3.310627612457165
mp-1196532,KCa4Si8H16O28F,4.8743,-6.757729087413793,-2.493319828487069
mp-605239,KCa4Si8H16O28F,0.16989999999999902,-6.106083821465517,-1.841674562538792
mp-1182518,KCa4Si8H16O28F,0.09099999999999901,-6.137226673965517,-1.8728174150387922
mp-1248491,KCa4Si8H16O28F,0.45260000000000006,-6.178491728534483,-1.914082469607758
mp-725593,NaCa3AlFe3(SiO3)8,3.3099,-8.00927351125,-3.042579305284484
mp-1248585,Na3CaSc3Zn(SiO3)8,3.6808,-7.74866107,-3.0376230324784492
mp-693463,NaCa3ScZn3(SiO3)8,4.3797999999999995,-7.594186921625,-3.103591203784482
mp-720987,Na3CaSc3Zn(SiO3)8,3.869399999999999,-7.737041506,-3.026003468478448
mp-1222471,Mg7TiAl6Si8(H4O19)2,2.570599999999999,-7.339263188235294,-2.9220774376225482
mp-1173812,Na3Mg4ScSi8(O11F)2,4.553699999999999,-7.56855981075,-3.244437245728448
mp-1173822,Na3Mg4CrSi8(O11F)2,3.449499999999999,-7.5444178387499985,-3.137280814603447
mp-1214735,Ba6Fe3Si8C2(ClO10)3,0.0,-7.623376668076923,-2.76244919451923
mp-693605,Na3Mg4CrSi8(O11F)2,1.158,-6.987414816375001,-2.580277792228448
mp-1221133,NaCa3AlFe3(SiO3)8,3.3489,-8.010303898250001,-3.043609692284484
mp-1221120,NaCa3ScZn3(SiO3)8,4.2539,-7.594169804249999,-3.103574086409482
mp-1223597,KCa3Mg3Al(SiO3)8,4.9526,-7.728579296249999,-3.28011020630625
mp-1221259,Na3CaMgCr3(SiO3)8,3.1858,-7.97478718375,-3.005437608728448
mp-1221261,Na3CaSc3Zn(SiO3)8,4.7697,-7.95672704725,-3.245689009728448
mp-1221119,NaCa3Mg3Fe(SiO3)8,2.9691,-7.7613678235000005,-3.189528822659484
mp-1223700,MgAl8Fe3Si8(H2O5)8,3.5984,-7.187741159736842,-2.547625531513158
mp-1229035,Ba2Ce2Ti2Fe(Si4O13)2,0.21900000000000003,-8.511739480000001,-3.340461791382114
mp-722188,NaCa4Si8H16O28F,5.0629,-6.751104083017241,-2.483068081747918
mp-1227550,Ca4MnFe11Si8(HO9)4,0.5691,-7.86724798875,-2.469365890358297
mp-1200158,K2BaNa2Ti4(SiO4)8,0.5992000000000001,-7.603733261836734,-2.7020103963386113
mp-720985,CaEr15Si8Se11ClO28,2.575299999999999,-7.771026678749999,-3.19648922055908
mp-1223435,KNaCaMg5Si8(O11F)2,4.6631,-7.47941419875,-3.261503409840732
mp-1220956,Na8Zr3Ti3Mn2Si8(O17F)2,1.2426,-7.9682542141666675,-3.07078258228161
mp-1194231,Na2Co2Si8H72C24N4O,0.27440000000000003,-5.25168433,-0.255278607590784
mp-1211060,Na5Ca7Zr2Ti2Si8(O5F)6,0.003999999999999,-7.6878138971666665,-3.405169280726054
mp-1212500,K2NaTi2Fe7Si8H4O31,1.466999999999999,-7.813625550727274,-2.558069298409927
mp-1223736,K6Na3Ti2Al2Si8Cl3O26,3.2034,-7.2675505172,-3.033737014486092
mp-743972,K2NaNb2Fe7Si8H4O31,0.11190000000000001,-7.8525225683636375,-2.516754933379623
mp-1212630,K2BaNa2Ti4Si8(WO7)4,0.10389999999999901,-8.102647219591837,-2.54703298878759
mp-510635,KNa2LiTi2Fe2(SiO3)8,2.0557,-8.016652952,-3.001443728000215
mp-1221189,Na5Ca7Zr2TiMnSi8(O8F)4,0.17900000000000002,-7.661992930666667,-3.257102638636015
mp-1214950,Ba2NaCe2Ti2FeSi8HO27,0.007200000000000001,-8.2037581325,-3.164957372143091
mp-1223707,KNa2LiTi2MnFe(SiO3)8,2.1473,-8.05775764075,-3.025248564698491
mp-1213447,KBaNaCaTi4Fe8Si8(O19F)2,0.0,-7.8117260965625,-2.483717186436917
mp-1215061,Ba2NaTi2MnRe2Si8HO26F,0.237599999999999,-8.079952928522728,-2.79842002891425
mp-1224621,La20Al3Si9O52,0.0,-8.693408973690477,-3.740091067500001
mp-1201218,Si9C8NO19,0.0,-7.606824431486487,-1.525561646351351
mp-722867,Ca3Cu5Si9O26,0.0689,-7.486282059534885,-2.742382492325582
mp-1224647,La3Nd11(Si3O13)3,4.1378,-8.676829567419354,-3.692055623266128
mp-727207,Si9C4NO18,1.5669,-8.113602618125,-2.390349490781251
mp-1219677,Si9C10NO18,0.0077,-8.029546360263156,-1.752807069999999
mp-2713783,Ca2Ta10Si9(SO8)9,1.3343,-8.317557939215687,-2.778275920351308
mp-2713808,Mg2Ta10Si9(SO8)9,1.3602,-8.291684931078432,-2.759758399763073
mp-2713771,Ta10Zn2Si9(SO8)9,1.4951,-8.219417303235295,-2.694759917116014
mp-2713824,Ca2Nb10Si9(SO8)9,0.8517,-8.032050914509805,-2.665869141004903
mp-2713888,Mg2Nb10Si9(SO8)9,0.8879,-8.004675152352942,-2.64584886639706
mp-2713973,Nb10Zn2Si9(SO8)9,1.0886,-7.93312556137255,-2.5815684206127463
mp-2714028,Na10Hf8Si9(SO16)3,4.363099999999999,-8.105701877649572,-3.0823712463841
mp-2714078,Na10Si9Sn8(SO16)3,2.611099999999999,-6.855054175000001,-2.4417355616832452
mp-2714084,Na10Zr8Si9(SO16)3,3.9709000000000003,-7.889149122435898,-3.010381403990938
mp-2714209,Na2Ta8Si9(SO16)3,3.1178,-8.672079726,-3.009737852984647
mp-2714137,Na10Si9Ge8(SO16)3,2.8133,-6.885104834316239,-2.40886765689692
mp-2714227,Na2Nb8Si9(SO16)3,2.3977,-8.331194940714287,-2.870638496575124
mp-2714288,Na10Ti8Si9(SO16)3,2.5199,-7.713051204017095,-2.901176676683246
mp-2715274,Na9CaNb5(SiO4)9,2.1444,-7.809183889444443,-2.950149380484674
mp-2715265,Na9MgNb5(SiO4)9,2.4084,-7.795221224916667,-2.942438880373564
mp-2715290,Na9CaNb5(SiO4)9,2.4646999999999992,-7.807793250208334,-2.948758741248564
mp-2715368,Na9MgNb5(SiO4)9,2.1119,-7.792566419249999,-2.939784074706896
mp-2715372,Na9CaTa5(SiO4)9,3.3314,-8.065455141333334,-3.059285423818008
mp-2715390,Na9MgTa5(SiO4)9,3.2278000000000002,-8.049196631458335,-3.049279078359675
mp-2715373,Na9Nb5Zn(SiO4)9,2.0017,-7.733520509027777,-2.88691693790134
mp-2715393,Na9Ta5Zn(SiO4)9,3.2198,-7.9908832673750005,-2.9971444876930082
mp-2715391,Na9MgTa5(SiO4)9,3.0833,-8.048328608277776,-3.048411055179118
mp-2715480,Na9CaTa5(SiO4)9,3.0784,-8.06589244397222,-3.059722726456896
mp-2715488,Na9Nb5Zn(SiO4)9,2.4046,-7.736895093750001,-2.8902915226235653
mp-2715507,Na9Ta5Zn(SiO4)9,2.949,-7.990522818111111,-2.9967840384291193
mp-40201,Na8Be3Si9(ClO12)2,3.9839,-7.110062800652174,-2.9094540064355323
mp-676431,Na4Al3Si9ClO24,4.5204,-7.684293996097559,-3.146950736232127
mp-677497,SrMg2Al6(Si3O10)3,3.836999999999999,-8.001442360416666,-3.32032745375
mp-686347,Ca16MgAl14Si9O56,1.0384,-7.404502764791666,-3.112088095364582
mp-686653,KMg4Al9(SiO4)9,3.949499999999999,-7.845609703898306,-3.297848844529662
mp-694056,BaMg2Al6(Si3O10)3,3.8662,-8.014923865833333,-3.329089233125
mp-695133,CsMg4Al9(SiO4)9,4.0434,-7.8458828030508485,-3.301908251350088
mp-695365,LiAl3Si9(N7O)2,3.8727,-8.042104101724139,-1.538472271839081
mp-695515,Na13Zr8Si9(PO16)3,4.415,-7.9266544403703705,-3.1315879434797482
mp-695648,KNa6Al7Si9O32,3.8716,-7.312292281636364,-2.902049742827743
mp-2716563,Na12Nb4Zn2(SiO4)9,2.003,-7.305292358571429,-2.765930212961139
mp-2716414,Na12Mg2Nb4(SiO4)9,2.1545,-7.415624790634921,-2.864493552802409
mp-2716369,Na12Mg2Ta4(SiO4)9,2.9629000000000003,-7.608506752142857,-2.945272498268018
mp-2716505,Na12Ta4Zn2(SiO4)9,2.7812,-7.497612084285715,-2.846146922633096
mp-2716399,Na12Ca2Ta4(SiO4)9,2.8449,-7.630963451984128,-2.955820313506112
mp-2716498,Na12Ca2Nb4(SiO4)9,2.1468,-7.446558367142858,-2.883518244707171
mp-651786,Ca5MnSi9(Pb3O11)3,2.816699999999999,-7.414431873157894,-2.7703193511040523
mp-686636,DyZr9Si9PO40,3.9673,-9.103630665833332,-3.541806379271825
mp-695202,Mg4Al9Cu(SiO4)9,1.9894999999999992,-7.8364243598305094,-3.238361179322034
mp-1173790,Na4MgAl2(Si3O8)3,4.811299999999999,-7.648312271250001,-3.096626491762932
mp-562801,Rb6In2Co2Si9O26,3.058199999999999,-7.237565119111111,-2.7232710355185192
mp-1214270,Ca4Be2Al2Si9O28,0.5991000000000001,-7.923830877555555,-3.249094270444444
mp-1227863,BaSm5Al3Si9N20O,2.8745000000000003,-8.173206804615385,-1.576027028205127
mp-2712825,Na6Ta6In2Si9(SO16)3,1.5234,-8.012488221486487,-2.829848942744718
mp-2712848,Na6Sc2Ta6Si9(SO16)3,2.7956000000000003,-8.255959813423424,-2.976744984366341
mp-2712856,Na6Zr4Ta4Si9(SO16)3,3.157299999999999,-8.26533912400901,-3.015962008132107
mp-2712870,Na6Ti4Nb4Si9(SO16)3,2.0952,-8.00989984063063,-2.891216298591566
mp-2712900,Na6Ta4Si9Sn4(SO16)3,2.4835000000000003,-7.721143671756757,-2.717070813987963
mp-2712885,Na9Mg2Nb10Si9(PO8)9,2.3019,-8.080350127657658,-2.943685318686482
mp-2712887,Na9Nb10Zn2Si9(PO8)9,2.4013,-8.016103773963964,-2.886118720037834
mp-2712899,Na6Y2Nb6Si9(SO16)3,2.081899999999999,-8.018833937477478,-2.878004111474448
mp-2712917,Na9Ca2Nb10Si9(PO8)9,2.3739,-8.102627411981983,-2.9592035063441413
mp-2712972,Na6Zr4Nb4Si9(SO16)3,2.3618,-8.103805581981982,-2.949867520303277
mp-2712975,Na6Nb4Si9Sn4(SO16)3,2.3019,-7.560880488063064,-2.652246684492467
mp-2712980,Na6Nb6In2Si9(SO16)3,2.1002,-7.776865081441442,-2.737384383996972
mp-2712979,Na6Ta6Al2Si9(SO16)3,2.791699999999999,-8.140750888963964,-2.931452094366341
mp-2712993,Na9Ta10Zn2Si9(PO8)9,3.121699999999999,-8.287209696396397,-2.9981595521399362
mp-2712990,Na6Nb6Al2Si9(SO16)3,2.0453,-7.903038138378378,-2.836897925078053
mp-2713049,Na6Ta4Si9Ge4(SO16)3,2.6025,-7.734545723603604,-2.697313082051025
mp-2713059,Na6Sc2Nb6Si9(SO16)3,2.119,-8.016599877882884,-2.880543630123098
mp-2713006,Na6La2Ta6Si9(SO16)3,2.611799999999999,-8.200820866126127,-2.959348253285259
mp-2713018,Na6Ta4Ti4Si9(SO16)3,2.0349,-8.172453689864865,-2.958331093627602
mp-2713075,Na9Ca2Ta10Si9(PO8)9,3.027199999999999,-8.37079209972973,-3.068303103761558
mp-2713097,Na6Y2Ta6Si9(SO16)3,2.8003,-8.257429388873874,-2.973440981573548
mp-2713101,Na9Mg2Ta10Si9(PO8)9,3.0701,-8.3519866090991,-3.056256709797593
mp-2713082,Na6La2Nb6Si9(SO16)3,1.9425,-7.961548434099099,-2.86323440255553
mp-2713095,Na6Hf4Ta4Si9(SO16)3,2.9524,-8.375440977297298,-3.049875299258232
mp-2713090,Na6Hf4Nb4Si9(SO16)3,2.2883,-8.219012333738739,-2.988885709897872
mp-2713115,Na6Nb6Ga2Si9(SO16)3,2.2314,-7.798633593018018,-2.751884725866341
mp-2713114,Na6Nb4Si9Ge4(SO16)3,2.2201,-7.570659218873875,-2.628865631519494
mp-2713120,Na6Ta6Ga2Si9(SO16)3,2.8022,-8.039690012612613,-2.849782564163638
mp-2713147,Na15Ca7Ta5Si9(SO8)9,1.9957999999999991,-7.2242896289743594,-2.6445807461526183
mp-2713128,Na6Mg4Ta8Si9(SO8)9,1.8098,-7.815336979722223,-2.705763685180024
mp-2713336,Na6Ta8Zn4Si9(SO8)9,1.7612,-7.682117307870372,-2.586274620920765
mp-2713388,Na15Mg7Nb5Si9(SO8)9,1.1027,-7.041850213162394,-2.5600389505828183
mp-2713491,Na15Ta5Zn7Si9(SO8)9,1.8525,-6.9480994090598305,-2.413014405639798
mp-2713484,Na6Mg4Nb8Si9(SO8)9,0.9539000000000001,-7.596957012222223,-2.618170569729406
mp-2713442,Na6Ca4Ta8Si9(SO8)9,1.7194999999999991,-7.852200740925927,-2.728733747680023
mp-2713464,Na6Ca4Nb8Si9(SO8)9,1.2157,-7.640097967500001,-2.647417826303481
mp-2713722,Na18Ca16Ta8Si9(S3O16)9,1.2085,-7.163335087522523,-2.549614602166641
mp-2713788,Na18Ca16Nb8Si9(S3O16)9,0.5582,-7.062565258378379,-2.512470809154629
mp-2713810,Na18Mg16Nb8Si9(S3O16)9,0.5153000000000001,-6.9638221310360375,-2.440764068478954
mp-2713831,Na18Ta8Zn16Si9(S3O16)9,1.553999999999999,-6.799851527567568,-2.239886449058533
mp-2713828,Na18Nb8Zn16Si9(S3O16)9,0.9697,-6.699600487522523,-2.20326144514562
mp-2713845,Na18Mg16Ta8Si9(S3O16)9,1.2122,-7.063673969954955,-2.47698987126574
mp-2713843,Na6Nb8Zn4Si9(SO8)9,1.0029,-7.465475239629629,-2.5004194047294073
mp-2714032,Na10Si9Sn4Ge4(SO16)3,2.6039,-6.8643158491025655,-2.419537953734528
mp-2714065,Na10Hf4Ti4Si9(SO16)3,2.6141,-7.908063136196582,-2.990460556896921
mp-2714105,Na10La4Ta4Si9(SO16)3,2.5593,-7.742798107521367,-2.879028676888373
mp-2714110,Na10Y4Ta4Si9(SO16)3,2.7204,-7.8656724036324785,-2.9212319783841
mp-2714103,Na10Ta4Ga4Si9(SO16)3,2.8991000000000002,-7.460046611880342,-2.694118775221707
mp-2714125,Na10Nb4Ga4Si9(SO16)3,2.174,-7.309961316709402,-2.634578223777262
mp-2714129,Na10Zr4Ti4Si9(SO16)3,2.4398,-7.796997547478633,-2.951676424589228
mp-2714128,Na10Zr4Si9Sn4(SO16)3,2.8438,-7.3688095878632485,-2.72276642198239
mp-2714141,Na10Hf4Zr4Si9(SO16)3,4.1238,-7.9963246732051285,-3.045275498349911
mp-2714150,Na10Sc4Ta4Si9(SO16)3,2.8025,-7.871011241324787,-2.9356283747943572
mp-2714153,Na15Mg4Nb8Si9(PO8)9,2.057299999999999,-7.673970469230769,-2.876718773354491
mp-2714160,Na10Hf4Si9Sn4(SO16)3,2.8327,-7.477850624529914,-2.7595260022388
mp-2714169,Na10Sc4Nb4Si9(SO16)3,2.0777,-7.724666230769231,-2.879828107965297
mp-2714184,Na15Ta8Zn4Si9(PO8)9,2.939199999999999,-7.759345032136752,-2.8540414183003593
mp-2714182,Na15Ca4Nb8Si9(PO8)9,2.226499999999999,-7.709765245384616,-2.8996885968587653
mp-2714183,Na10Hf4Si9Ge4(SO16)3,2.7270000000000003,-7.488787331367522,-2.739003427025126
mp-2714202,Na10Ta4In4Si9(SO16)3,0.6686999999999991,-7.409519289145299,-2.657382338597775
mp-2714221,Na10Ti4Si9Ge4(SO16)3,2.5642,-7.295210679871795,-2.651154827495211
mp-2714235,Na10Y4Nb4Si9(SO16)3,1.996999999999999,-7.7199919544444455,-2.866096272922562
mp-2714213,Na10Nb4In4Si9(SO16)3,2.0338,-7.260713370341881,-2.599121163520852
mp-2714214,Na10La4Nb4Si9(SO16)3,1.8748,-7.602066421324787,-2.828841734418289
mp-2714232,Na10Ti4Si9Sn4(SO16)3,2.6094,-7.284725254102565,-2.672128683777262
mp-2714211,Na10Zr4Si9Ge4(SO16)3,2.8409,-7.376176106410257,-2.698673658478117
mp-2714256,Na15Ca4Ta8Si9(PO8)9,2.8554,-7.90948760017094,-2.978684626676428
mp-2714284,Na15Nb8Zn4Si9(PO8)9,2.0837,-7.552750326752137,-2.768173037884406
mp-2714266,Na2Ta4Nb4Si9(SO16)3,2.3648,-8.499738998238096,-2.938289839660838
mp-2714310,Na15Mg4Ta8Si9(PO8)9,2.864199999999999,-7.8784895258119665,-2.960511504967026
mp-2714313,Na10Ta4Al4Si9(SO16)3,2.9337,-7.657269862948718,-2.854548190008032
mp-2714319,Na10Nb4Al4Si9(SO16)3,2.1853,-7.5040036277350435,-2.791826698520853
mp-2714621,Na14Mg2Si9Ge6(SO16)3,1.955099999999999,-6.713723180650407,-2.463378457806631
mp-2714631,Na14Ti4In4Si9(SO16)3,2.1679,-7.042700178008131,-2.650653554188745
mp-2714635,Na14Ca2Si9Sn6(SO16)3,1.6790999999999991,-6.715158387317073,-2.500551179961101
mp-2714650,Na30Mg20Ta4Si9(S3O16)9,2.2993,-6.6972355006410265,-2.451941957300054
mp-2714646,Na14Mg2Ti6Si9(SO16)3,1.7771999999999992,-7.30814121398374,-2.818347893944842
mp-2714653,Na14Ca2Zr6Si9(SO16)3,3.1703,-7.45719355390244,-2.910528143497687
mp-2714659,Na14In4Si9Sn4(SO16)3,2.196199999999999,-6.629505330772358,-2.427015788009883
mp-2714654,Na14Hf4In4Si9(SO16)3,2.990199999999999,-7.227359537154472,-2.734742327318826
mp-2714671,Na9Nb7Zn5Si9(SO8)9,1.4506000000000001,-7.235940431621622,-2.448466277792016
mp-2714668,Na30Ca20Nb4Si9(S3O16)9,1.5385,-6.783587078247863,-2.536412734525125
mp-2714674,Na14Ca2Si9Ge6(SO16)3,1.6505,-6.728679719552845,-2.46918548780663
mp-2714677,Na14Zr4Sc4Si9(SO16)3,3.623099999999999,-7.552269493170732,-2.954100724229395
mp-2714690,Na14Zr4Al4Si9(SO16)3,3.3091,-7.337004802154472,-2.8650259490667933
mp-2714717,Na14Ti6Zn2Si9(SO16)3,1.718699999999999,-7.226962312804878,-2.746211100205004
mp-2714705,Na9Mg5Nb7Si9(SO8)9,1.5009000000000001,-7.394964886846847,-2.590791345404629
mp-2714738,Na9Ta7Zn5Si9(SO8)9,2.1744,-7.415264538288289,-2.516444821227452
mp-2714748,Na30Mg20Nb4Si9(S3O16)9,1.6163,-6.650416030598291,-2.435304068499485
mp-2714742,Na14Y6Nb2Si9(SO16)3,1.9628,-7.490606624552846,-2.895651512440777
mp-2714750,Na14Nb2Ga6Si9(SO16)3,1.8582,-6.886166188170732,-2.545918062217199
mp-2714713,Na14Hf4Ga4Si9(SO16)3,3.5317,-7.262440658211382,-2.756705288416386
mp-2714772,Na14Ca2Hf6Si9(SO16)3,3.4062,-7.608500340772358,-2.9587016328066302
mp-2714773,Na14Ta4Zn4Si9(SO16)3,2.1195,-7.134855342682927,-2.622223089952972
mp-2714807,Na14Mg4Nb4Si9(SO16)3,1.2887,-7.153579523821139,-2.708990983172484
mp-2714756,Na30Ta4Zn20Si9(S3O16)9,2.5137,-6.392171997692309,-2.178564471872704
mp-2714769,Na14Y4Si9Sn4(SO16)3,2.272999999999999,-7.066424091178861,-2.681011731018012
mp-2714786,Na14Y4Zr4Si9(SO16)3,3.6196,-7.564983675487806,-2.958199179961103
mp-2714764,Na14Y6Ta2Si9(SO16)3,2.7157,-7.562350066504066,-2.9243309909123223
mp-2714734,Na14Mg2Zr6Si9(SO16)3,3.3146,-7.426556797520326,-2.889040896018013
mp-2714761,Na14Nb2In6Si9(SO16)3,1.839,-6.826219668048781,-2.505648782034272
mp-2714787,Na14Mg2Si9Sn6(SO16)3,1.9518,-6.692087575894309,-2.486629877440776
mp-2714799,Na14Hf6Zn2Si9(SO16)3,3.5194,-7.5006303143495945,-2.86902322272533
mp-2714714,Na9Ca5Nb7Si9(SO8)9,1.235,-7.433059333513515,-2.61198805040463
mp-2714739,Na14Nb4Zn4Si9(SO16)3,1.3415,-6.987184793333334,-2.560680467562728
mp-2714810,Na14Ta2Al6Si9(SO16)3,2.5501,-7.231704707032521,-2.795894095099314
mp-2714854,Na30Nb4Zn20Si9(S3O16)9,1.7030999999999992,-6.343373482991454,-2.159947538414015
mp-2714844,Na14Zr6Zn2Si9(SO16)3,3.2115,-7.343028595162602,-2.8145548010993133
mp-2714846,Na14Ta2Ga6Si9(SO16)3,2.7423,-6.959356586829268,-2.576044497396061
mp-2714815,Na14Ca2Ti6Si9(SO16)3,1.602899999999999,-7.330255375691057,-2.831312546749719
mp-2714843,Na14Y4Ti4Si9(SO16)3,2.1759,-7.47942797203252,-2.90445853081476
mp-2714849,Na14Sc4Si9Ge4(SO16)3,2.6957999999999993,-7.076577213780488,-2.669855897278175
mp-2714845,Na30Ca20Ta4Si9(S3O16)9,2.3696,-6.830530088290598,-2.553174163325695
mp-2714857,Na14Sc6Nb2Si9(SO16)3,1.8667,-7.480024714634147,-2.897993192400126
mp-2714860,Na14Zn2Si9Ge6(SO16)3,1.8193000000000001,-6.630504979837399,-2.389202364432647
mp-2714865,Na14Y4Hf4Si9(SO16)3,3.9367,-7.6689032295934965,-2.9933632023594763
mp-2714877,Na14Ca4Ta4Si9(SO16)3,2.0873,-7.349782651910569,-2.800767166497687
mp-2714878,Na14La4Si9Sn4(SO16)3,2.1707,-6.972398083373984,-2.663721547359476
mp-2714935,Na14La6Nb2Si9(SO16)3,1.984,-7.349379067398375,-2.869527691505818
mp-2714887,Na14Nb2Al6Si9(SO16)3,1.7485,-7.157745722764228,-2.764999074310696
mp-2714902,Na14La4Ti4Si9(SO16)3,2.2439,-7.386962379837399,-2.88872876276598
mp-2714946,Na14Zr4In4Si9(SO16)3,3.1859,-7.12355802792683,-2.6996963497985
mp-2714911,Na9Ca5Ta7Si9(SO8)9,1.8739000000000001,-7.610571966666667,-2.678155120326551
mp-2714918,Na14Zn2Si9Sn6(SO16)3,1.8577,-6.609472507560977,-2.4130569165464673
mp-2714970,Na24Mg10Nb2Si9(SO8)9,1.2034999999999991,-6.596631390158731,-2.540798853219075
mp-2714905,Na14Ca4Nb4Si9(SO16)3,1.3514,-7.208410715569106,-2.745523157115573
mp-2714919,Na14Hf4Al4Si9(SO16)3,3.7155,-7.439982619146342,-2.899248234351346
mp-2714980,Na14La6Ta2Si9(SO16)3,2.8276,-7.423223492032521,-2.900308152660289
mp-2715002,Na14Y4Si9Ge4(SO16)3,2.3723,-7.074909514674797,-2.659572471587118
mp-2715066,Na24Nb2Zn10Si9(SO8)9,1.4658,-6.330197213174603,-2.303787406790504
mp-2715114,Na24Ca10Nb2Si9(SO8)9,1.6198000000000001,-6.709727047539682,-2.624122299092091
mp-2715142,Na14Sc4Ti4Si9(SO16)3,2.0795,-7.47245701898374,-2.9061033043513462
mp-2715037,Na24Ta2Zn10Si9(SO8)9,2.5298,-6.381236993412699,-2.326801433018017
mp-2715026,Na14Ti4Ga4Si9(SO16)3,2.0151,-7.0811584736585385,-2.6759936898798022
mp-2715055,Na14Zr4Ga4Si9(SO16)3,3.4715,-7.1554836529674795,-2.718503814879801
mp-2715084,Na14Hf4Sc4Si9(SO16)3,3.920999999999999,-7.658117413821138,-2.991193113172484
mp-2715127,Na14Al4Si9Sn4(SO16)3,2.446399999999999,-6.851362059634147,-2.600755341912322
mp-2715107,Na14Ti4Al4Si9(SO16)3,1.960999999999999,-7.265668802601627,-2.82550500382289
mp-2715111,Na14Sc4Si9Sn4(SO16)3,2.4644,-7.064944578658537,-2.688147945083053
mp-2715164,Na24Mg10Ta2Si9(SO8)9,1.973999999999999,-6.64274304388889,-2.558884752938653
mp-2715169,Na14Hf6Mg2Si9(SO16)3,3.6345,-7.581705635365854,-2.9410564363025653
mp-2715173,Na14La4Zr4Si9(SO16)3,3.6389,-7.472254846585366,-2.942206175205005