Material_ID,Formula,Band_Gap,Energy_per_Atom,Formation_Energy_per_Atom
mp-2716276,Na2La4Ta4Si5S7O48,2.0341,-7.943087135761906,-2.750338342756077
mp-2716281,Na5Ta3InSi5PO24,3.3076,-8.000921429829061,-2.966006351372806
mp-2716335,Na5YNb3Si5PO24,2.4655,-7.994321813589743,-2.9990721133728053
mp-2716324,Na5Zr2Ta2Si5PO24,3.4234,-8.223306392820513,-3.125075930415541
mp-2716316,Na5YTa3Si5PO24,3.278799999999999,-8.227514882991454,-3.096448067184771
mp-2716252,Na8Hf2In2Si5SO24,2.9279,-7.208384337698413,-2.775467537385741
mp-2716199,Na2Hf4Si5Sn4S7O48,1.7367,-7.569318618952381,-2.538636898098933
mp-2716234,Na2Hf4Ti4Si5S7O48,1.383099999999999,-8.066072884380953,-2.813338582860838
mp-2716264,Na8Y3NbSi5SO24,2.6197,-7.46541526047619,-2.932597174607964
mp-2716273,Na8La2Ti2Si5SO24,2.3899,-7.346610987460318,-2.9082115038936793
mp-2716304,Na5Ta3GaSi5PO24,3.343499999999999,-8.020447458632479,-2.978636937120669
mp-2716359,Na5LaTa3Si5PO24,3.1081,-8.167169212820513,-3.076437894321524
mp-2716379,Na5Hf2Nb2Si5PO24,2.5382,-8.181248817521368,-3.101281642432634
mp-2716426,Na5Hf2Ta2Si5PO24,3.407799999999999,-8.33648033102564,-3.165968412210412
mp-2716481,Na5Nb3AlSi5PO24,2.457,-7.8837111667521365,-2.959320842689045
mp-2716445,Na5LaNb3Si5PO24,2.249399999999999,-7.932652317350428,-2.9777381144411823
mp-2716390,Na5Ta3AlSi5PO24,3.1862,-8.116684405726495,-3.05647696607366
mp-2716404,Na5ScTa3Si5PO24,3.215,-8.229259056410257,-3.102721019962549
mp-2716449,Na5Ta2Si5Sn2PO24,3.1268,-7.716569737094018,-2.851063827253148
mp-2716487,Na5ScNb3Si5PO24,2.4175,-7.994281744444445,-3.003560823586481
mp-2716518,Na5Ti2Nb2Si5PO24,2.3748,-7.978204057350427,-3.003964934227506
mp-534982,Al13Si5H14Cl(O17F2)2,3.921999999999999,-7.001352784929578,-2.760704525598591
mp-2716534,Na5Nb2Si5Ge2PO24,2.5115,-7.566031831880342,-2.7596113837146863
mp-2716516,Na5Nb3GaSi5PO24,2.5545,-7.787042473076924,-2.881049067154857
mp-2716535,Na5Nb3InSi5PO24,2.4029,-7.765282126666667,-2.866184163800157
mp-685130,K2Al4Fe5Si5(HO6)4,1.054199999999999,-7.178923845454545,-2.200435917261363
mp-2716500,Na5Ta2Ti2Si5PO24,2.412099999999999,-8.136739984529916,-3.071956117680499
mp-2716529,Na5Zr2Nb2Si5PO24,2.510799999999999,-8.069360496837607,-3.061674778159131
mp-2716542,Na5Ta2Si5Ge2PO24,2.9768,-7.721798601538462,-2.82483340964631
mp-694049,NaCa4TaTi4(SiO5)5,2.8068,-8.50012157325,-3.40915579367615
mp-720204,NaCa4Ti4Nb(SiO5)5,2.9213999999999993,-8.425460337625001,-3.3786351206178162
mp-1211795,KNaSi5SnW3O13,0.592599999999999,-7.540787353125,-1.8404900089012202
mp-685002,Sr2Er2Al3Si5N11O3,0.1751,-7.5477089507692305,-1.491995502692308
mp-684728,Ba2Tm2Al3Si5N11O3,0.0,-6.437762718846154,-0.371177769230771
mp-684935,Ba2Ho2Al3Si5N11O3,0.0,-7.436424507692308,-1.3609797130769241
mp-1195048,NaCaMn3Si5HO15,3.1151,-8.068463916153846,-2.854058600823938
mp-1202461,LiCa2Mn2Si5HO15,3.4069000000000003,-7.96009380269228,-2.9991197690555653
mp-720340,Ca5Ti3NbAl(SiO5)5,2.9144,-8.390128522500001,-3.4304542326250003
mp-720394,Ca5TaTi3Al(SiO5)5,2.8624,-8.46896068575,-3.465145833308333
mp-731864,Si6O13,0.008799999999999001,-7.999589967894737,-2.900884639210526
mp-530027,Si6O13,2.0846,-7.8587748747368416,-2.7600695460526303
mp-1173536,Si6O13,0.0835,-7.375625165789474,-2.276919837105263
mp-673849,Si6O13,0.0451,-7.281409241052631,-2.182703912368421
mp-1182561,Ca3(Si3O11)2,0.8393,-6.935593466451613,-2.1799854041935482
mp-1202590,Ca5(Si3O11)2,0.1053,-6.8960846239393945,-2.307143724242424
mp-1227183,Ca5(SiO3)6,0.0,-7.759790497931035,-3.220369612758622
mp-1233067,Ca(SiO2)6,2.7136,-8.005908218421053,-3.062064001578948
mp-1233212,Ca(SiO2)6,2.6361,-7.983719141052632,-3.039874924210527
mp-1235283,Li(SiO2)6,0.0,-7.9685457552631584,-3.029789802280702
mp-1235382,Li(SiO2)6,0.0,-7.951008512631579,-3.012252559649123
mp-1233493,Mg(SiO2)6,3.2288,-7.934132264736842,-3.010031725
mp-1266421,Si6Bi9O26,0.0,-7.124110288292684,-2.338519968780489
mp-542214,Si6Cl10O7,5.6325,-6.14629723,-2.421384107608696
mp-1180962,Mn8Si6O25,0.008699999999999,-8.343494607692309,-2.457672668165341
mp-727278,Ca6Si6O19,0.5506,-7.727441055645161,-3.256577618387097
mp-818295,Fe9Si6O25,1.2425,-8.117053857687498,-2.305025752812498
mp-766877,Si6Bi9O26,0.0,-7.109725963902439,-2.3241356443902452
mp-775315,Si6Bi9O26,0.0,-7.123320164756098,-2.337729845243904
mp-1196268,Ca6Si6O19,0.7609,-7.7273406506451625,-3.256477213387097
mp-1204238,Ca6Si6O19,0.012100000000000001,-7.481300762096774,-3.01043732483871
mp-1202320,Mn8Si6O25,0.048,-8.341217336794871,-2.455395397267905
mp-1182427,Ca9(Si3O16)2,0.0317,-6.685975706382979,-2.240506360425531
mp-1202163,Ca6Si6O19,0.7095,-7.726362236451613,-3.255498799193548
mp-1234432,Ca(SiO2)6,3.7323999999999993,-7.961059315789474,-3.017215098947369
mp-1235061,Li(SiO2)6,0.0,-7.85865618631579,-2.919900233333334
mp-1233788,Mg(SiO2)6,4.892099999999999,-7.922951243684211,-2.998850703947369
mp-1250148,Na5(SiO3)6,0.0,-6.66686719,-2.241908218858502
mp-727205,Ca6Si6O19,0.5771000000000001,-7.7270940593548385,-3.256230622096774
mp-945194,Na5(SiO3)6,0.0,-6.7464340948275865,-2.321475123686088
mp-1212197,Na(SiO2)6,0.198799999999999,-7.941487090789473,-3.032583879283122
mp-1234144,Ca(SiO2)6,0.0,-7.862419525789474,-2.918575308947369
mp-1235054,Li(SiO2)6,0.0,-7.961553501578948,-3.022797548596492
mp-1233503,Mg(SiO2)6,3.1178,-7.875618814736842,-2.951518275
mp-2902293,Mg(SiO2)6,3.6479,-9.502225539473685,-2.742218402894735
mp-1182691,Mg4Si6O23,0.037200000000000004,-6.668961272045454,-2.036328200681818
mp-1198184,Mg5(SiO3)6,0.128299999999999,-7.526396634310346,-3.051653312068966
mp-556390,Rb10Si6O17,3.3796,-6.5356759,-2.703173294242424
mp-531302,La10(Si2O9)3,3.3817,-8.739248383372091,-3.7274593981395343
mp-850220,Si6BiO14,0.004899999999999001,-7.986074609761904,-2.9521033450000003
mp-1199479,Ca5(Si3O11)2,0.274999999999999,-6.963265961212121,-2.374325061515152
mp-1176885,Li7Fe6(SiO4)6,1.9923000000000002,-7.524630474418605,-2.513338390077519
mp-1177108,Li5Fe4(Si3O10)2,1.469199999999999,-7.625832942571429,-2.627666443904762
mp-1214286,Ca5Si6W5O17,0.07840000000000001,-7.788553149999999,-1.985950246515151
mp-1214353,Ca3Si6W7O15,0.0,-7.97084399,-1.406488038225806
mp-1233307,MgAl2(Si3O8)2,4.4704999999999995,-8.065718859599999,-3.232082622199999
mp-1233408,MgAl2(Si3O8)2,4.443899999999999,-8.0606813988,-3.2270451614
mp-1233677,CaAl2(Si3O8)2,4.5347,-8.164479303999999,-3.315837871999999
mp-1234153,MgAl2(Si3O8)2,4.4190000000000005,-8.0369547288,-3.2033184914
mp-757389,Li7Mn11(Si3O16)2,0.28550000000000003,-7.872783468214286,-2.425796171438835
mp-778120,Li5Mn4(Si3O10)2,0.0,-7.784602576571428,-2.7073510399540233
mp-779820,Li3Fe4(Si3O10)2,0.0,-7.744190132727272,-2.558796747272727
mp-849656,Li5Co4(Si3O10)2,0.17300000000000001,-7.338861709428572,-2.493450009619049
mp-1218866,SrAl2(Si2O7)3,0.2584,-7.2639324505000005,-2.409176816
mp-562394,Cs4Li2(Si2O5)3,4.59,-7.176762300185185,-2.946351956862494
mp-1200010,Mn8Si6ClO24,0.47040000000000004,-8.263065430128206,-2.456715909703803
mp-1221246,Na3Y(Si2O5)3,4.609,-7.857975034800001,-3.165751951165517
mp-581877,Cs2Zr(Si2O5)3,4.975199999999999,-8.129810647638887,-3.249186521568485
mp-1221256,Na5Y2(SiO4)6,0.8277000000000001,-6.918689845135136,-2.296263920997204
mp-1229260,Cs3Eu(Si2O5)3,0.6834,-7.8826864527,-3.091351737458621
mp-680314,Rb14Si6Ge4O17,1.342799999999999,-5.8493813751829284,-2.2179951873780492
mp-1213517,Eu3Si6N4O9,0.12019999999999902,-9.12493680409091,-2.70216389727273
mp-1220852,NaHo9(Si3O13)2,4.3796,-8.545582487619049,-3.6903508144376023
mp-1223421,KPr9(Si3O13)2,4.4388,-8.506322310952381,-3.61371499767262
mp-1220819,NaY9(Si3O13)2,4.4348,-8.924025924523809,-3.659205958128079
mp-1221031,NaNd9(Si3O13)2,4.4314,-8.524862113333333,-3.6331015899733172
mp-1222506,LiY9(Si3O13)2,4.4329,-8.938529657857142,-3.6602048798412703
mp-1223480,KNd9(Si3O13)2,4.454,-8.515824120952383,-3.629071956065477
mp-554885,Ba3Si6N4O9,4.372,-8.02736158,-2.7458346243181833
mp-757434,LiSi6Bi9O26,2.8794,-7.091215636190477,-2.374117398888891
mp-1210654,Na5Ca4(SiO3)6,0.0,-7.147453704949495,-3.015750381219087
mp-1173749,Na8Al6Si6O25,1.8468,-7.232940886000001,-3.022759674578545
mp-684833,Na8Al6Si6O25,1.409199999999999,-7.226902478444444,-3.016721267022989
mp-772721,LiSi6Bi9O26,3.119099999999999,-7.101077340119048,-2.383979102817461
mp-985697,Ba3Si6(NO6)2,4.6093,-8.04451385304348,-3.072299916086957
mp-1019533,Ba9Y2(SiO4)6,4.5982,-7.87325949,-3.444188032439024
mp-555314,Sr7Zr(Si2O7)3,4.4323999999999995,-7.933161149714286,-3.451624391285715
mp-558428,Ba9Sc2(SiO4)6,4.3422,-7.864960215365853,-3.444504484390243
mp-1195515,K2U(Si2O5)3,0.016,-8.208062624375001,-3.1945012614375
mp-1195621,Rb2U(Si2O5)3,0.569199999999999,-8.203575145416666,-3.20258342
mp-1199476,NaMg4(SiO3)6,0.182399999999999,-7.3001981637931035,-2.835411711771701
mp-542686,K4Na2(Si2O5)3,4.1851,-7.131824476111112,-2.910333968583653
mp-557649,K2Ce(Si2O5)3,2.187,-8.02561048125,-3.235151624145834
mp-559460,Cs2Ti(Si2O5)3,3.290199999999999,-8.044498984166667,-3.191050216985153
mp-1212175,Mn8Si6ClO24,0.060899999999999004,-8.249124384358975,-2.442774863934572
mp-560597,Na8Si6SnO18,3.8106,-6.886747391212122,-2.754670289576803
mp-699587,MnSi6Pb8O21,3.2475,-7.328310871527778,-2.458247506609195
mp-775349,Li2Cr(Si2O5)3,1.3259,-8.000929752187501,-2.990837399756945
mp-727940,Be3Al2Si6O19,0.8145,-7.922341493999999,-3.079922909666666
mp-6030,Be3Al2(SiO3)6,5.3322,-8.106372968793103,-3.267593778275862
mp-778011,Li3Cr(Si2O5)3,3.8743,-7.8823988783,-2.9963533053
mp-777799,Li3Fe(Si2O5)3,3.4618,-7.7650800698,-2.9263555472
mp-1183664,Ca6Si6H2O19,4.4792,-7.651574496060606,-3.245904816287879
mp-1194623,Rb2Th(Si2O5)3,4.8855,-8.138273498958334,-3.298846430208334
mp-1194845,K2U(Si2O5)3,0.11580000000000001,-8.207713002916668,-3.194151639979166
mp-1214849,Ca9Si6(WO7)4,2.196999999999999,-7.973071127659575,-2.8458852519148943
mp-1227865,Ca4Fe5(Si3O14)2,0.0,-7.5360578937209315,-2.385655059069768
mp-558087,Na2Ca3(Si3O8)2,4.3043,-7.70484645462963,-3.244864030287356
mp-6763,K2Ti(Si2O5)3,3.256599999999999,-8.059010885416667,-3.186946105534723
mp-757348,Li2Fe(Si2O5)3,0.28450000000000003,-7.807601088958333,-2.846801497361111
mp-757273,Li2Si6Ni3O16,3.445599999999999,-7.572669065925926,-2.651278694320988
mp-757311,Li2Fe3(Si3O8)2,2.9702,-7.978080495925926,-2.757814065432098
mp-757778,Li2V(Si2O5)3,2.203999999999999,-7.999091190208333,-3.012713062777777
mp-766967,Li2Mn3(Si3O8)2,3.0588,-8.173867862962963,-2.87671320112814
mp-767058,Li2Cr(Si2O5)3,1.3383999999999991,-7.947129825416667,-2.937037472986111
mp-1227996,Ca3Fe7(SiO4)6,2.5679,-8.079761627,-2.664513616749999
mp-1265172,Li3V(Si2O5)3,2.3996999999999993,-7.8907977274,-3.027517810399999
mp-1196189,Na2Zr(SiO3)6,0.45980000000000004,-7.340438566481481,-2.420203438435504
mp-2912310,Na2Zr(SiO3)6,0.7935,-9.66765485648148,-2.631984216666666
mp-734338,Na2Zr(SiO3)6,0.3668,-7.337919266666667,-2.417684138620691
mp-1204133,Cs2Th(Si2O5)3,4.8223,-8.141668952291667,-3.308288258721264
mp-728912,Na4Zr(SiO3)6,0.11760000000000001,-7.392054366810345,-2.7186133318281813
mp-1210357,Na5Mn4(SiO3)6,0.0,-7.63402685969697,-2.634879243594567
mp-1198222,NaNd(Si2O5)3,0.0,-7.9199234050000005,-3.012045515168665
mp-1195679,Cs2Th(Si2O5)3,4.7695,-8.141738278125,-3.308357584554598
mp-1197866,Cs2U(Si2O5)3,0.27079999999999904,-8.215845936041667,-3.220900585804598
mp-561549,K2Be2(Si2O5)3,4.83,-7.806309169800015,-3.145793632580015
mp-850539,LiCr(Si2O5)3,0.7595000000000001,-8.065647515869566,-2.920721707536232
mp-1203968,CaAl2(Si2O7)3,0.384,-7.090130736333333,-2.224936042166666
mp-1202111,CaAl2(Si3O10)2,0.5963,-7.446598572586207,-2.5842578891379313
mp-557301,K2Ti(Si2O5)3,3.4389,-8.061166657083334,-3.189101877201389
mp-766984,Li2Fe(Si2O5)3,0.33240000000000003,-7.815303074791667,-2.854503483194444
mp-767204,Li2V(Si2O5)3,2.0913,-8.006315340208333,-3.019937212777777
mp-1214557,Ca4Si6W3O19,0.0322,-8.07693041734375,-2.656306745937499
mp-557414,BaSi6N8O,4.2279,-8.189035766249999,-1.5562191359375
mp-1204030,Si6C8N2O19,0.880899999999999,-7.012868044285715,-0.8108952812857141
mp-1197707,Si6C8N2O19,0.0,-6.910943488000001,-0.708970725
mp-1204163,CaZrSi6O17,0.8641000000000001,-8.0230318772,-2.9342100462
mp-1214457,CaZr(SiO3)6,0.0,-7.481333557115385,-2.397929450192308
mp-1210412,Na2ZrSi6O19,0.0,-7.329813157857143,-2.40858781991995
mp-1210380,Na3Zr(SiO3)6,0.0961,-7.437348026785714,-2.644916982647783
mp-1212371,Mg4Si6H6O17,1.345,-6.317367053409089,-1.967060266818181
mp-1198373,K3Nd(Si2O5)3,4.0363,-7.758319435000001,-3.160976240770001
mp-6453,K3Nd(Si2O5)3,4.3515000000000015,-7.7652630133,-3.167919819069999
mp-733539,Na2Zr(SiO3)6,0.5192,-7.336764470648148,-2.416529342602172
mp-756789,Li3V(Si2O5)3,2.373699999999999,-7.8842228431,-3.0209429261
mp-757017,Li3Mn(Si2O5)3,1.1159,-7.8197247001,-2.953320414217241
mp-757542,Li3Ti(Si2O5)3,0.169,-7.895121486400001,-3.079378131533334
mp-757427,Li3Fe(Si2O5)3,3.2329,-7.7743135615,-2.9355890389000012
mp-765207,Li3Cr(Si2O5)3,3.5858,-7.886508235899999,-3.000462662899999
mp-1221344,Na2Zr(Si2O5)3,4.8774,-8.127229535520835,-3.21046014209411
mp-12187,Na2Mg2(Si2O5)3,4.703,-7.6313737881999995,-3.122745594510344
mp-14977,Na3Y(Si2O5)3,4.8323,-7.8499960219,-3.157772938265517
mp-555604,Na3Dy(Si2O5)3,4.77,-7.7796350867,-3.163040641932184
mp-757870,Li2Cu2(Si2O5)3,0.0,-7.4382618173,-2.686758524166667
mp-757292,Li3Si6NiO15,1.7001,-7.5465936145,-2.8154644731
mp-757761,Li3V(Si2O5)3,2.4198,-7.8884646314,-3.0251847144
mp-757647,Li2Mn2(Si2O5)3,3.2499000000000002,-8.0883385631,-2.93181058020115
mp-758981,Li3Mn(Si2O5)3,1.344399999999999,-7.8212462988,-2.954842012917241
mp-765285,Li3Fe(Si2O5)3,3.382399999999999,-7.778614204300001,-2.9398896817000013
mp-759348,Li3Cr(Si2O5)3,3.786199999999999,-7.8862612807,-3.0002157077
mp-775302,Li2Cr(Si2O5)3,1.2686,-7.989921557395834,-2.979829204965278
mp-772545,Li3Ti(Si2O5)3,0.323099999999999,-7.899230917900001,-3.083487563033334
mp-772312,Li2Fe2(Si2O5)3,3.0223,-7.7973830497000005,-2.6962145933666672
mp-773075,Li2V2(Si2O5)3,1.3186,-8.061302064,-2.911022818866667
mp-775301,LiV(Si2O5)3,2.0883,-8.15487393728261,-3.034693407210145
mp-775292,Li2V(Si2O5)3,1.9546000000000001,-8.037872687604166,-3.051494560173611
mp-773023,Li2Cr2(Si2O5)3,1.6803,-8.0796899673,-2.883879410166665
mp-775303,Li2Fe(Si2O5)3,0.0,-7.844196723854167,-2.883397132256944
mp-775750,LiFe(Si2O5)3,0.0,-7.894074174891305,-2.800584290905797
mp-850290,Li2Si6Ni2O15,3.854999999999999,-7.658687239900001,-2.7727095459666673
mp-818474,NaFe2(Si2O5)3,1.9980000000000002,-7.910405534895833,-2.699860265994971
mp-780575,Na2Fe(Si2O5)3,0.0,-7.749636815833334,-2.83610406490661
mp-1210996,Mg2Al3(SiO3)6,0.0,-6.893107849137931,-2.199560477068966
mp-1194616,Ca2Al4(Si2O7)3,0.315299999999999,-7.885383685151515,-3.174699068030303
mp-1201995,CaAl2(Si3O10)2,0.37420000000000003,-7.268410362586207,-2.4060696791379312
mp-1197130,CaAl2(Si3O10)2,0.030499999999999004,-7.450421501034483,-2.588080817586207
mp-556496,Sr10Al4Si6O,0.0,-3.94643117047619,-0.6413619607142851
mp-560226,NaNd(Si3O7)2,4.843,-8.1895453925,-3.283489462449058
mp-557126,NaPr(Si3O7)2,4.8347000000000016,-8.186336506931818,-3.279038575706635
mp-849779,LiSi6BiO14,3.9643,-7.9043089124999995,-3.012385302196969
mp-863392,LiFe(Si3O7)2,2.6182,-8.042729145454546,-2.942624312424242
mp-774422,LiV(Si3O7)2,2.2459,-8.172454075113636,-3.044445384810606
mp-775339,Li2V(Si2O5)3,1.7923,-8.006573763333334,-3.020195635902778
mp-775340,Li2Cr(Si2O5)3,0.0,-7.955195968958333,-2.945103616527777
mp-1214164,Ca4Si6W5O17,0.342699999999999,-7.9403562090625,-2.019096961093749
mp-1227284,Ca7Si6CO23,0.0,-7.622586551621621,-3.038184498986486
mp-1196785,Ca6Co3Si6O5,0.0,-5.64638488775,-1.110106755499999
mp-1214932,Ca5Si6W5O17,0.0,-7.781035957272727,-1.978433053787879
mp-1249301,Li2V(Si2O5)3,2.2147,-7.997980443333333,-3.011602315902777
mp-17617,K2Ti(Si2O5)3,3.456399999999999,-8.061066614375,-3.189001834493054
mp-18460,K2Si6GeO15,4.399699999999999,-7.742439270833334,-3.006727164354167
mp-18582,Rb2Ti(Si2O5)3,3.5096,-8.053138052500001,-3.193642910138891
mp-6748,Cs2Ti(Si2O5)3,3.5085,-8.049493132708333,-3.19604436552682
mp-757460,Li2Fe(Si2O5)3,1.7102,-7.802828547708334,-2.842028956111111
mp-767777,Li2V(Si2O5)3,2.041,-7.976767033958333,-2.990388906527778
mp-1120751,Ba6ZnCo5(SiO4)6,3.061,-7.568929939285715,-2.813128769047619
mp-1218728,SrCa2Al6(SiO5)6,0.0137,-7.362045128888889,-2.713871325333333
mp-1221526,Na2CaMn3(SiO3)6,0.0814,-7.980460317666667,-2.854117198218391
mp-1249333,Mg5Al4Fe(SiO4)6,3.171899999999999,-7.56714702425,-2.9944558516249993
mp-1266607,Y5Be6Fe3(SiO5)6,1.8421999999999992,-8.3938509956,-3.1661962626
mp-1265318,Y4Be6Fe3(SiO5)6,0.0,-8.105403915918368,-2.9039009536734692
mp-2712824,Na7Zr3Ta(SiO4)6,3.619399999999999,-7.952219155447155,-3.11794971195907
mp-2712835,Na7Hf3Nb(SiO4)6,2.711999999999999,-8.037360828536585,-3.1430220509672
mp-2712878,Na7TaTi3(SiO4)6,2.6317999999999993,-7.826757702520326,-3.040210840495656
mp-2712886,Na7Ti3Nb(SiO4)6,2.5152,-7.750828055365854,-3.007345156820858
mp-2712879,Na7NbSi6(SnO8)3,2.7720000000000002,-7.158841177073171,-2.699693900113541
mp-2712958,Na7NbSi6(GeO8)3,2.5418000000000003,-7.172686514715448,-2.668652213365574
mp-2713025,Na7Zr3Nb(SiO4)6,2.7923,-7.877297766341464,-3.086092286333053
mp-2713052,Na7TaSi6(SnO8)3,2.9212,-7.23153675691057,-2.729325516471265
mp-2713084,Na7TaSi6(GeO8)3,3.0194,-7.247166316829269,-2.70006805199972
mp-2713077,Na7Hf3Ta(SiO4)6,3.554599999999999,-8.110407348373984,-3.173004607324923
mp-2713174,Na5Nb3Si6GeO24,2.7986,-7.840054966324787,-2.8929134491939292
mp-2713168,Na5Ta3Si6SnO24,3.786799999999999,-8.073882212649574,-3.006653220954613
mp-2713210,Na5Nb3Si6SnO24,2.849,-7.836471993076923,-2.905060116971707
mp-2713212,Na5TiNb3(SiO4)6,2.8114,-8.042189465470086,-3.011138610860596
mp-2713392,Na5Ta3Si6GeO24,3.648799999999999,-8.075970600256412,-2.993011967535809
mp-2713403,Na5HfNb3(SiO4)6,2.912,-8.143272482991453,-3.059357602399058
mp-2713408,Na5Ta3Ti(SiO4)6,3.038399999999999,-8.2785376191453,-3.111669648946066
mp-2713520,Na5ZrNb3(SiO4)6,2.8926,-8.086233543760684,-3.038459391373417
mp-2713527,Na5ZrTa3(SiO4)6,3.8009,-8.32144476837607,-3.137853500399058
mp-2713519,Na5HfTa3(SiO4)6,3.8015,-8.379295824529915,-3.159563828347774
mp-2715223,Na6YNb3(SiO4)6,2.9127,-7.908330131625,-3.004172541831896
mp-2715251,Na6Nb3Ga(SiO4)6,2.7963,-7.699481497875,-2.882348795019396
mp-2715258,Na6YTa3(SiO4)6,3.5464,-8.13040903825,-3.093829760756896
mp-2715263,Na6Ta3Ga(SiO4)6,3.5983,-7.925150056625,-2.9755956660693963
mp-2715299,Na6Nb3In(SiO4)6,2.6236,-7.683967443750001,-2.873557797873564
mp-2715275,Na6YTa3(SiO4)6,3.7813,-8.13692969425,-3.100350416756896
mp-2715283,Na6Nb3Ga(SiO4)6,2.6135,-7.702691046583334,-2.8855583437277312
mp-2715286,Na6Nb3Al(SiO4)6,2.6276,-7.797422047333334,-2.962352349290229
mp-2715303,Na6LaTa3(SiO4)6,3.3563,-8.070785299083333,-3.07353313146523
mp-2715346,Na6Ta3In(SiO4)6,3.7659000000000002,-7.9142000531250005,-2.971368719548563
mp-2715327,Na6ScNb3(SiO4)6,2.641,-7.9030403385833345,-3.00329830866523
mp-2715329,Na6Ta3Al(SiO4)6,3.6127000000000002,-8.024258248875,-3.056766863131896
mp-2715347,Na6Ta3In(SiO4)6,3.4699,-7.9132684420000015,-2.970437108423563
mp-2715322,Na6LaTa3(SiO4)6,3.7086,-8.077884050749999,-3.080631883131896
mp-2715367,Na6Nb3In(SiO4)6,2.8804,-7.684932441624999,-2.874522795748563
mp-2715389,Na6LaNb3(SiO4)6,2.9042000000000003,-7.854715614125,-2.989885134206896
mp-2715427,Na6Ta3Ga(SiO4)6,3.5318,-7.931404713666667,-2.981850323111063
mp-2715411,Na6ScNb3(SiO4)6,2.8406000000000002,-7.90195322675,-3.002211196831896
mp-2715455,Na6LaNb3(SiO4)6,2.5256,-7.845129367083333,-2.980298887165231
mp-2715437,Na6Ta3Al(SiO4)6,3.526099999999999,-8.027000874333334,-3.05950948859023
mp-2715457,Na6ScTa3(SiO4)6,3.5022,-8.129370329250001,-3.097206611631897
mp-2715430,Na6ScTa3(SiO4)6,3.7323,-8.13176437475,-3.099600657131896
mp-2715489,Na6YNb3(SiO4)6,2.6386000000000003,-7.902892495250001,-2.998734905456897
mp-2715520,Na6Nb3Al(SiO4)6,2.7497,-7.795644295625,-2.960574597581897
mp-691076,Ba2Al4Si6H14O27,0.608899999999999,-6.27419178735849,-1.887409925896226
mp-694907,Mg5Al4Fe(SiO4)6,2.703899999999999,-7.5175272815,-2.944836108875