Material_ID,Formula,Band_Gap,Energy_per_Atom,Formation_Energy_per_Atom
mp-2715543,Na7Mg2Zr2SiP5O24,3.7122,-7.331581156747967,-2.916894900232589
mp-2715539,Na7Sc2In2SiP5O24,3.7543,-7.149364370487805,-2.787679469907386
mp-2715540,Na2Al2In2SiS5O24,0.23090000000000002,-6.688189248518519,-2.228158118201629
mp-2715546,NaNb3GaSiP5O24,2.301199999999999,-8.159513811142858,-2.847300048345532
mp-2715552,NaTa2SiSn2P5O24,3.3306,-8.073427076380954,-2.806327952074104
mp-2715545,NaLaTa3SiP5O24,3.120199999999999,-8.608705980476191,-3.090641400807437
mp-2715555,NaYNb3SiP5O24,2.3909000000000002,-8.406902492190476,-2.995231715750294
mp-2715558,Na2Hf2Mg2SiS5O24,2.9264,-7.311366877870371,-2.568951888016443
mp-2715569,Na2Hf2Zn2SiS5O24,3.0217,-7.100928481574074,-2.379109403109037
mp-2715570,Na7Y2Ga2SiP5O24,3.7698,-7.183936432682928,-2.8005176455577923
mp-2715556,Na7Hf2Mg2SiP5O24,4.2249,-7.435083822195123,-2.9516420339724263
mp-2715577,Na2La2Ga2SiS5O24,1.5553,-6.9026500677777785,-2.361543740007184
mp-2715585,Na2Y2Ga2SiS5O24,1.387,-7.001085059166667,-2.372585153896073
mp-2715593,Na7Mg2Ti2SiP5O24,2.0159,-7.236433622520326,-2.853562420313889
mp-2715592,Na7Zn2SiGe2P5O24,1.321199999999999,-6.644174218211383,-2.4390196290130772
mp-2715599,NaTa3AlSiP5O24,3.0965,-8.533394292285715,-3.049342034759817
mp-2715598,Na7Y2Sc2SiP5O24,4.3819,-7.59815758097561,-3.053549862996817
mp-2715607,Na7Ca2Ti2SiP5O24,1.7605,-7.26339845195122,-2.862228231939905
mp-2715608,NaScNb3SiP5O24,2.2872,-8.398853629333335,-2.992229207036008
mp-2715610,Na7Sc2Al2SiP5O24,4.5951,-7.364880802764228,-2.955078727224458
mp-2715621,Na7Y2In2SiP5O24,3.631999999999999,-7.164376166666667,-2.794075539500881
mp-2715624,NaNb3AlSiP5O24,2.2127,-8.272986284666668,-2.9402730987979133
mp-2715626,Na7Y2Al2SiP5O24,4.3683,-7.371883058536586,-2.953465256411451
mp-2715630,Na7Ti2Zn2SiP5O24,1.6666,-7.055580047804878,-2.690793060476491
mp-2715635,Na7Ca2Zr2SiP5O24,3.3927,-7.384053717642277,-2.9510684433220202
mp-2715632,Na7La2Al2SiP5O24,4.2125,-7.272879184065041,-2.9311972060862472
mp-2715645,NaNb2SiSn2P5O24,2.5869,-7.900779723904763,-2.734573314036009
mp-2715640,Na7Ca2Hf2SiP5O24,3.8648,-7.4809414555284555,-2.979200649500881
mp-2715642,NaHf2Ta2SiP5O24,3.4104,-8.783339457904763,-3.176376495026484
mp-2715660,Na7Zn2SiSn2P5O24,1.9567,-6.657537896585366,-2.48230799031389
mp-2715653,Na7Ca2SiGe2P5O24,0.748499999999999,-6.836067592764228,-2.5945297708829953
mp-2715673,NaLaNb3SiP5O24,2.263,-8.351257612095239,-2.9845321040836272
mp-2715677,NaTa2Ti2SiP5O24,2.558,-8.549067184476192,-3.059915479502676
mp-2715683,Na7La2Ga2SiP5O24,3.5852,-7.088781130569106,-2.782098167590312
mp-2715692,Na7Mg2SiGe2P5O24,1.732199999999999,-6.825649272764228,-2.6024104686878733
mp-2715687,Na7Al2In2SiP5O24,3.7613000000000003,-6.929297552682927,-2.693802567956165
mp-2715693,NaYTa3SiP5O24,3.1691,-8.667141718857144,-3.104131870759817
mp-2715704,NaZr2Ta2SiP5O24,3.3841,-8.659594512571429,-3.133173743978866
mp-2715793,Na7Mg2SiSn2P5O24,2.1847,-6.835899644796748,-2.642585523647223
mp-2715828,Na5Sc2SiSn2P5O24,2.7169,-7.3856387664957275,-2.804960930857543
mp-2715743,Na2Sc2Ga2SiS5O24,1.7215,-6.989156978981482,-2.370469428988666
mp-2715802,NaNb2SiGe2P5O24,2.6158,-7.90164291352381,-2.700381875083627
mp-2715741,Na7Hf2Zn2SiP5O24,3.856199999999999,-7.257220869512195,-2.791863296167547
mp-2715748,NaHf2Nb2SiP5O24,2.5741,-8.610688242952381,-3.104617994512198
mp-2715770,NaZr2Nb2SiP5O24,2.5845000000000002,-8.485086922,-3.059558867845532
mp-2715881,Na5Mg2Ta2SiP5O24,2.5156,-7.618393413076923,-2.875902418584039
mp-2715887,Na5Hf3MgSiP5O24,4.2736,-7.942341540940171,-3.084280239019936
mp-2715892,Na5ZnSiSn3P5O24,2.425,-6.89927692863248,-2.508230445430193
mp-2715725,Na2La2Sc2SiS5O24,2.1496,-7.399211834722223,-2.674529224590518
mp-2715755,Na7La2Sc2SiP5O24,4.11,-7.499076774796749,-3.031204880964296
mp-2715823,Na5Sc3TaSiP5O24,3.2933,-7.9041667673504294,-3.062456805105406
mp-2715920,Na5Ca2Nb2SiP5O24,1.7545000000000002,-7.52396882931624,-2.8527851495754923
mp-2715715,Na2La2In2SiS5O24,0.8971999999999991,-6.8947332897222235,-2.368567088571999
mp-2715729,NaTa2SiGe2P5O24,3.1304,-8.074073013619048,-2.77191926074077
mp-2715731,Na7Zr2Zn2SiP5O24,3.5313,-7.14993541097561,-2.75333336933828
mp-2715735,Na2Mg2Zr2SiS5O24,2.2587,-7.19730931638889,-2.533199237646074
mp-2715749,NaTa3InSiP5O24,1.0145,-8.40395284104762,-2.948083500283627
mp-2715858,Na5Mg2Nb2SiP5O24,1.722799999999999,-7.467538892991453,-2.8155926422250652
mp-2715969,Na5Y2Ti2SiP5O24,2.1726,-7.809296643846155,-3.020283292481475
mp-2715814,NaScTa3SiP5O24,3.116799999999999,-8.657840094190476,-3.099876600236008
mp-2715824,Na5La2SiGe2P5O24,1.0245,-7.252180724444445,-2.711657042652414
mp-2715833,Na5Hf3ZnSiP5O24,4.2732,-7.850950940512821,-3.002395443848997
mp-2715877,Na5Ga2SiGe2P5O24,2.614299999999999,-6.961243406239316,-2.518561318421645
mp-2715897,Na5CaZr3SiP5O24,3.6222000000000003,-7.812213257521368,-3.052955425729338
mp-2715907,Na5Hf2In2SiP5O24,3.605699999999999,-7.555491373931624,-2.8530534453019882
mp-2715849,Na5CaTi3SiP5O24,1.9465,-7.658505900854701,-2.949417962396005
mp-2716044,Na5Ti2Al2SiP5O24,2.4021,-7.585921172222223,-2.9386265731652363
mp-2715739,Na7Sc2Ga2SiP5O24,4.0235,-7.175233839349594,-2.800430778809825
mp-2715807,NaTa3GaSiP5O24,3.1473,-8.420190835238095,-2.956638000783626
mp-2715923,Na5La3NbSiP5O24,2.2938,-7.695962785555555,-3.006945349019936
mp-2715929,Na5Zr2Ga2SiP5O24,3.641899999999999,-7.472852680085471,-2.828905321754979
mp-2715936,Na5In2SiGe2P5O24,2.087799999999999,-6.912327502905983,-2.483436301199424
mp-2716117,Na5CaHf3SiP5O24,4.283200000000001,-7.971331187777777,-3.103651171370363
mp-2715994,Na5Sc3NbSiP5O24,2.3081,-7.82381943965812,-3.027381849276347
mp-2715767,NaTi2Nb2SiP5O24,2.5046,-8.374154118571429,-2.985895128036008
mp-2715768,Na7In2Ga2SiP5O24,3.4394,-6.741134042764228,-2.540638073037467
mp-2715974,Na5Y2SiGe2P5O24,1.7875,-7.371674600085471,-2.750479923678056
mp-2715905,Na5TaAl3SiP5O24,3.1995,-7.5645532049572655,-2.92183503309686
mp-2715997,Na5ZnSiGe3P5O24,2.0946,-6.898707834786325,-2.4604724285071162
mp-2715954,Na5Zr3ZnSiP5O24,3.6747,-7.68438350008547,-2.944250188037031
mp-2715870,Na5Nb2Zn2SiP5O24,1.8101999999999991,-7.279020368119659,-2.646085727866091
mp-2716007,Na5Ga2SiSn2P5O24,2.9552,-6.954540248717949,-2.54331744295156
mp-2716018,Na5Ti2Ga2SiP5O24,2.2998,-7.383147907094018,-2.772647144319083
mp-2716026,Na5CaSiGe3P5O24,1.8726999999999991,-7.006771504444445,-2.549411578421646
mp-2716034,Na5Al2SiSn2P5O24,3.211699999999999,-7.15366098042735,-2.70564433837891
mp-2716040,Na5Zr2Sc2SiP5O24,3.9705,-7.9049324115384625,-3.091530023336175
mp-2716079,Na5La2Ti2SiP5O24,1.9645000000000001,-7.700941417435898,-2.992599060686603
mp-2715761,Na7La2In2SiP5O24,3.4081,-7.069340039186993,-2.775775236167548
mp-2715811,NaNb3InSiP5O24,2.356999999999999,-8.143474043714287,-2.838943774607436
mp-2716057,Na5MgZr3SiP5O24,3.595499999999999,-7.7769887276923075,-3.027349610387457
mp-2716070,Na5Ta2Zn2SiP5O24,2.5731,-7.431224458290599,-2.707745074310534
mp-2715979,Na5Zr2In2SiP5O24,3.608799999999999,-7.443265538034189,-2.813109065814808
mp-2716053,Na5Hf2Ga2SiP5O24,3.8214,-7.584632453675214,-2.868403638934466
mp-2716003,Na5In2SiSn2P5O24,2.611799999999999,-6.9262135053846166,-2.5287815857293383
mp-2715946,Na5MgSiSn3P5O24,2.4005,-6.99101353948718,-2.590461251028484
mp-2715971,Na5Ca2Ta2SiP5O24,2.4264,-7.672531262735043,-2.910802839267799
mp-2716096,Na5CaSiSn3P5O24,2.102699999999999,-7.018920631367522,-2.608749628421646
mp-2716105,Na5Al2SiGe2P5O24,2.8755,-7.167972683076924,-2.688496758977201
mp-2716081,Na5La2SiSn2P5O24,1.8409,-7.281935067008548,-2.7728706672678003
mp-2716098,Na5Ti3ZnSiP5O24,1.951,-7.53932270034188,-2.849359281626773
mp-2716086,Na5TaIn3SiP5O24,0.7953999999999991,-7.214421567435898,-2.647580479165236
mp-2715904,Na5Hf2Al2SiP5O24,4.5474,-7.779350616153847,-3.026327965131047
mp-2715911,Na5Y2Zr2SiP5O24,3.792399999999999,-7.92037366965812,-3.097913722737885
mp-2715916,Na5Y2SiSn2P5O24,2.21,-7.394282758717949,-2.804547364361816
mp-2716077,Na5TaGa3SiP5O24,3.3363,-7.265714078290599,-2.67818666085327
mp-2716033,Na5Ti2In2SiP5O24,2.2293,-7.344913520256411,-2.748203643592586
mp-534863,CaMg2TiAl2SiO10,2.3238,-7.8225813282352945,-3.377986524313725
mp-720216,Ca3Y9Al18CrSiO48,0.5981999999999991,-8.34637140425,-3.5388778815
mp-743704,Ca4Y2Al7Cr2SiO24,0.47799999999999904,-8.033041488875,-3.264489228374999
mp-1227925,Ca3Zr2AlFeSiO12,3.0066,-8.363044430625,-3.356612029125
mp-1227961,Ca3Hf2AlFeSiO12,3.0174,-8.58032097425,-3.43293973275
mp-1201229,SiH2CS(OF)3,5.5535,-5.615369944090909,-1.418268479772727
mp-24308,AlSiH9C3Cl2O,5.380599999999999,-5.282556537058824,-0.8085316775735291
mp-558267,NaLiSiB3HO8,5.445699999999999,-7.4971851990000005,-2.717652434564175
mp-849790,SiH21C6N2OF5,5.6441,-5.370727715277777,-0.8349059217013891
mp-729152,SiMo12H24C6N3O40,2.4079,-7.095377693488372,-1.335350015930233
mp-541025,Ca3SiH30CSO25,4.4149,-5.796823123196721,-1.6925090081557381
mp-1214820,Ca3SiH14CSO10,2.1723,-5.336161812499999,-1.275459048416666
mp-1208635,SrErAl3SiN4O3,2.2302,-7.822243845384615,-2.351537198076923
mp-1214427,BaErAl3SiN4O3,2.611899999999999,-7.848820915,-2.360687586923077
mp-1226454,CoSiH15N6(OF3)2,2.7165,-5.589000609354838,-1.237551123508064
mp-558297,Na2Ce2TiSi(CO6)2,0.0,-8.2068092855,-2.921258566054598
mp-560249,SiH8C2NClO,5.0286,-5.145715965000001,-0.418661969642858
mp-766429,SiH18C2N8(OF3)2,4.9958,-5.783221394864864,-1.105359148040541
mp-697210,Ca11YAl15Cr4SiO48,0.0,-7.677385256625,-3.098710709374999
mp-722686,SiH10C2N4(OF3)2,5.5609,-5.9997408964000005,-1.497082470699999
mp-2712545,NaYSiSn(SO6)2,1.1598,-7.166452719074074,-2.447677532484036
mp-2712547,Na2NbGaSi(PO6)2,2.3899,-7.553089387807017,-2.74021361094093
mp-2712550,NaInSiSn(SO6)2,1.469799999999999,-6.648858752407408,-2.138412330076628
mp-2712557,NaYSiGe(SO6)2,0.544299999999999,-7.135846469351853,-2.382990393872925
mp-2712555,NaScSiGe(SO6)2,1.3878,-7.146495913240741,-2.403452193039592
mp-2712559,NaScSiSn(SO6)2,1.77,-7.153035706851853,-2.444072875539592
mp-2712567,NaYTiSi(SO6)2,1.5904,-7.629356539351852,-2.694696899335889
mp-2712571,Na3MgInSi(SO6)2,2.143799999999999,-6.393132142333333,-2.318513376373563
mp-2712576,Na2YNbSi(PO6)2,2.0321,-7.981292218859649,-2.985206153704088
mp-2712580,Na3CaGaSi(SO6)2,1.761299999999999,-6.469543718833334,-2.362722345665231
mp-2712568,NaZrInSi(SO6)2,3.328299999999999,-7.235821717870372,-2.473257030261814
mp-2712582,NaCaNbSi(SO6)2,0.7746999999999991,-7.293236376851852,-2.486225547761814
mp-2712599,Na2TaAlSi(PO6)2,3.2314,-7.9169738322807035,-2.973408460142685
mp-2712608,NaHfScSi(SO6)2,4.084899999999999,-7.848720281388889,-2.80933427368774
mp-2712612,NaTaZnSi(SO6)2,1.7472999999999992,-7.205013729537037,-2.341349220854406
mp-2712583,Na2NbAlSi(PO6)2,2.4298,-7.759063299298246,-2.908425427300579
mp-2712593,Na3MgAlSi(SO6)2,3.8284000000000002,-6.606063421666667,-2.482124551373564
mp-2712602,NaScTiSi(SO6)2,1.9652999999999992,-7.634575820740741,-2.709728536002555
mp-2712585,Na3ScZnSi(SO6)2,3.7872,-6.6735179150000015,-2.438770701206897
mp-2712586,Na2ScNbSi(PO6)2,2.1904,-7.983444314035088,-2.996654164405843
mp-2712595,NaAlSiGe(SO6)2,2.0735,-6.918611307962964,-2.319283880817369
mp-2712606,NaMgNbSi(SO6)2,1.0228,-7.250014526388889,-2.463844245354406
mp-2712609,NaZrGaSi(SO6)2,3.4302,-7.268268730462963,-2.490763916234037
mp-2712588,Na3CaLaSi(SO6)2,3.5438,-6.849837211833334,-2.6476202845402312
mp-2712613,Na2YTaSi(PO6)2,2.6586,-8.128936887719298,-3.039923322423386
mp-2712623,NaZrScSi(SO6)2,3.5185,-7.735677690555556,-2.774596593965518
mp-2712622,Na3ZnGaSi(SO6)2,2.5594,-6.248761460833334,-2.17923290116523
mp-2712633,NaYZrSi(SO6)2,3.0139,-7.749484948148148,-2.778591496280332
mp-2712629,Na3ZnInSi(SO6)2,2.7377000000000002,-6.217468253166667,-2.161385807456897
mp-2712688,NaLaSiGe(SO6)2,0.8395,-7.042401177777778,-2.376938679798851
mp-2712670,Na3MgScSi(SO6)2,3.7407999999999992,-6.8429280595,-2.589644525456897
mp-2712677,Na3CaAlSi(SO6)2,3.0432,-6.63605764225,-2.493362278706897
mp-2712648,NaTiGaSi(SO6)2,2.1205,-7.178092176666667,-2.436821174289592
mp-2712697,NaTiInSi(SO6)2,1.6137000000000001,-7.120492866759259,-2.3941619910025542
mp-2712687,NaZrAlSi(SO6)2,3.8914,-7.471507023611111,-2.6541422200766283
mp-2712641,Na3MgGaSi(SO6)2,2.7683,-6.429764726916668,-2.341699846998564
mp-2712650,Na2TaInSi(PO6)2,3.001299999999999,-7.664176899122808,-2.772527426283035
mp-2712661,Na2ScTaSi(PO6)2,2.9823,-8.13821343245614,-3.058495782686544
mp-2712690,NaHfGaSi(SO6)2,3.448899999999999,-7.383865198518519,-2.52805547317848
mp-2712692,Na3LaZnSi(SO6)2,3.1156,-6.582366820250001,-2.417442706456897
mp-2712642,NaLaTiSi(SO6)2,1.471099999999999,-7.505871110462964,-2.658605047947
mp-2712693,NaHfInSi(SO6)2,3.2497,-7.345750568888889,-2.5048809701692223
mp-2712710,Na2LaNbSi(PO6)2,1.8202,-7.8538311021929825,-2.9405389525637373
mp-2712720,NaMgTaSi(SO6)2,1.5418,-7.403059689814815,-2.518799269743295
mp-2712743,Na3CaYSi(SO6)2,3.6247,-6.935679697166667,-2.654808550123563
mp-2712749,NaNbZnSi(SO6)2,1.1353,-7.048646866944445,-2.283072497298852
mp-2712764,NaTiAlSi(SO6)2,2.169899999999999,-7.391747003981482,-2.610616012298852
mp-2712755,Na3CaInSi(SO6)2,0.06580000000000001,-6.463832316083335,-2.370457056873564
mp-2712757,NaCaTaSi(SO6)2,1.2621,-7.438898578611111,-2.533797610484035
mp-2712713,NaGaSiGe(SO6)2,1.823399999999999,-6.697291827777779,-2.13782438993774
mp-2712741,NaLaZrSi(SO6)2,2.8665000000000003,-7.640065230833334,-2.756565356465517
mp-2712766,NaLaHfSi(SO6)2,3.5288,-7.7433700480555565,-2.781565262576628
mp-2712800,Na3YMgSi(SO6)2,3.7228,-6.850747764666667,-2.5886331108735643
mp-2712777,Na3CaScSi(SO6)2,3.1857,-6.903639066416668,-2.631599039123564
mp-2712778,NaLaSiSn(SO6)2,0.750799999999999,-7.052526575925926,-2.421144966835888
mp-2712796,Na2TaGaSi(PO6)2,3.165999999999999,-7.710908138596492,-2.805104861590053
mp-2712773,NaGaSiSn(SO6)2,2.4245,-6.69171697638889,-2.16633042743774
mp-2712782,NaAlSiSn(SO6)2,2.607199999999999,-6.896648207870371,-2.331401669613666
mp-2712785,Na3YZnSi(SO6)2,3.4208,-6.681291558833334,-2.437713225290231
mp-2712811,Na3AlZnSi(SO6)2,3.584199999999999,-6.428610973333334,-2.32320842329023
mp-2712802,Na3LaMgSi(SO6)2,3.5956,-6.7511681228333345,-2.56770768879023
mp-2712807,Na2NbInSi(PO6)2,2.1667,-7.503516113245615,-2.704794140546194
mp-2712816,Na2LaTaSi(PO6)2,2.4577,-8.002373200877193,-2.996153551107597
mp-2713220,Na2ZnSiSn(SO6)2,1.405399999999999,-6.392685000526316,-2.127930987513611
mp-2713226,Na2MgZrSi(SO6)2,2.9668,-7.125867471403509,-2.602752659443436
mp-2713222,Na2CaHfSi(SO6)2,3.412099999999999,-7.292391802719299,-2.6753497136539632
mp-2713259,Na2CaZrSi(SO6)2,2.609199999999999,-7.188389797631579,-2.645531308566244
mp-2713314,Na2HfMgSi(SO6)2,3.6334,-7.232857600263158,-2.635559188303085
mp-2713323,Na2CaSiGe(SO6)2,0.0,-6.605598169122808,-2.269301405057472
mp-2713293,Na2MgSiSn(SO6)2,1.3113000000000001,-6.5767793003508785,-2.292513371285542
mp-2713588,Na2ZnSiGe(SO6)2,0.8459000000000001,-6.380642196491228,-2.0836010255837882
mp-2713623,Na2MgTiSi(SO6)2,1.4069,-7.030210448333334,-2.541422405496068
mp-2713701,Na2CaSiSn(SO6)2,0.789,-6.638153506403509,-2.33414390023291
mp-2713689,Na2CaTiSi(SO6)2,1.196699999999999,-7.070268513508772,-2.561736793566243
mp-2713663,Na2ZrZnSi(SO6)2,3.0848,-6.941318745964913,-2.437715850057471
mp-2713578,Na2TiZnSi(SO6)2,1.5062000000000002,-6.842423788157895,-2.373147661373261
mp-2713695,Na2MgSiGe(SO6)2,0.7902999999999991,-6.569042471315789,-2.252489384355716
mp-2714281,NaYHfSi(SO6)2,3.7611,-7.85890923962963,-2.809710876650702
mp-2713679,Na2HfZnSi(SO6)2,3.7293000000000003,-7.047177077631579,-2.469390581724138
mp-2714038,NaHfAlSi(SO6)2,4.5215,-7.59027932925926,-2.694609614613665
mp-2714339,Na4CaHfSi(PO6)2,3.647199999999999,-7.391958611349207,-2.965221984435061
mp-2714367,Na4ZnSiSn(PO6)2,1.947899999999999,-6.596787633095238,-2.488787836895379
mp-2714417,Na4ZnSiGe(PO6)2,1.334,-6.585948887619048,-2.448736900942998
mp-2714354,Na4MgTiSi(PO6)2,2.0323,-7.162306663492064,-2.85160941173665
mp-2714357,Na4TiZnSi(PO6)2,1.6211000000000002,-6.986419613730159,-2.693376000308077
mp-2714438,Na4CaTiSi(PO6)2,1.7569,-7.186514772539683,-2.857954193879506
mp-2714361,Na4ZrZnSi(PO6)2,3.611499999999999,-7.077863938809524,-2.75376277237157
mp-2714407,Na4MgZrSi(PO6)2,3.7154,-7.246730583650794,-2.904975778879506
mp-2714443,Na4MgSiSn(PO6)2,2.2248,-6.768076169206349,-2.642422734673156
mp-2714465,Na4CaSiSn(PO6)2,1.4493,-6.804333392539682,-2.660816631101728
mp-2714488,Na4CaZrSi(PO6)2,3.2605,-7.291623061666667,-2.932004929990618
mp-2714587,Na4CaSiGe(PO6)2,0.9436999999999991,-6.7725900332539695,-2.599861081339824
mp-2714594,Na4MgSiGe(PO6)2,1.7059000000000002,-6.760080731746032,-2.605215106736649
mp-2714601,Na4HfZnSi(PO6)2,3.620199999999999,-7.179533105158731,-2.7883134434826813
mp-2714592,Na4HfMgSi(PO6)2,3.9059,-7.34709398452381,-2.938220684514426
mp-2715238,Na3HfInSi(PO6)2,3.7828,-7.469837582,-2.851171469504515
mp-2715249,Na3YSiGe(PO6)2,1.6716000000000002,-7.270328519166667,-2.73087457758785
mp-2715224,Na3YHfSi(PO6)2,4.2925,-7.9206157048333345,-3.114453704504515
mp-2715226,Na3YTiSi(PO6)2,2.159,-7.693913161,-2.990836011337849
mp-2715225,Na3CaTaSi(PO6)2,2.590799999999999,-7.5573500598750005,-2.880875714912849
mp-2715227,Na3ZrInSi(PO6)2,2.887,-7.364824192916667,-2.816632500421182
mp-2715233,Na3AlSiGe(PO6)2,2.912399999999999,-7.097046632166667,-2.695768474087849
mp-2715245,Na3HfInSi(PO6)2,3.928699999999999,-7.461369968750001,-2.842703856254515
mp-2715292,Na3AlSiSn(PO6)2,3.2664,-7.078827737999999,-2.708222379921181
mp-2715255,Na3HfAlSi(PO6)2,4.5863,-7.68470120575,-3.016714988921181
mp-2715267,Na3YTiSi(PO6)2,2.0505,-7.699528442833334,-2.996451293171183
mp-2715270,Na3ZrInSi(PO6)2,3.7605999999999993,-7.362457219499999,-2.814265527004515
mp-2715260,Na3LaSiSn(PO6)2,1.9805000000000001,-7.187076486124999,-2.756949564296182
mp-2715285,Na3ScSiGe(PO6)2,2.285199999999999,-7.292201204416667,-2.761578382587849
mp-2715291,Na3CaNbSi(PO6)2,1.7041,-7.419190109416666,-2.830996889587849
mp-2715317,Na3GaSiSn(PO6)2,3.068399999999999,-6.890118459999999,-2.555387092296182
mp-2715295,Na3YSiGe(PO6)2,2.332,-7.278557650125,-2.739103708546183
mp-2715308,Na3MgTaSi(PO6)2,2.4483,-7.522952914625,-2.865235062912849
mp-2715305,Na3YHfSi(PO6)2,4.4501,-7.917089253499999,-3.110927253171181
mp-2715314,Na3LaHfSi(PO6)2,4.3251,-7.798343244250001,-3.070835463671182
mp-2715330,Na3LaZrSi(PO6)2,3.413699999999999,-7.702775757333334,-3.045742396754517
mp-2715332,Na3TiInSi(PO6)2,2.2454,-7.259101806916667,-2.743520545087849
mp-2715361,Na3TiGaSi(PO6)2,2.3465,-7.305176390625,-2.7761490148378503
mp-2715355,Na3ZrScSi(PO6)2,4.096,-7.8088778395,-3.082021378921182
mp-2715377,Na3HfScSi(PO6)2,4.736099999999999,-7.918017821125,-3.120686940546181
mp-2715337,Na3ScTiSi(PO6)2,2.2291,-7.710441333166667,-3.016195303254516
mp-2715342,Na3HfGaSi(PO6)2,3.9648000000000003,-7.497906655125,-2.8657944286711823
mp-2715369,Na3YSiSn(PO6)2,2.1199,-7.306036658,-2.797255516421182
mp-2715357,Na3LaTiSi(PO6)2,1.8729,-7.575483252750001,-2.951060322837849
mp-2715340,Na3InSiGe(PO6)2,1.9993,-6.828358017499999,-2.476399963754515
mp-2715345,Na3ScTiSi(PO6)2,2.2984,-7.709269678125,-3.015023648212849
mp-2715351,Na3AlSiGe(PO6)2,2.8865,-7.094480004,-2.693201845921182
mp-2715339,Na3ZrAlSi(PO6)2,4.1046,-7.5728314999999995,-2.975319703171182
mp-2715376,Na3InSiSn(PO6)2,1.515699999999999,-6.8522921977500015,-2.531006944004515
mp-2715386,Na3MgNbSi(PO6)2,1.9965000000000002,-7.3861173555000015,-2.816680628921183
mp-2715387,Na3YZrSi(PO6)2,3.7403,-7.814700064583333,-3.079012484254515
mp-2715398,Na3LaZrSi(PO6)2,3.7358000000000002,-7.699726973625,-3.042693613046182
mp-2715401,Na3GaSiGe(PO6)2,2.6199,-6.897052124166667,-2.53164795646285
mp-2715402,Na3HfGaSi(PO6)2,3.932299999999999,-7.498758165916667,-2.86664593946285
mp-2715388,Na3AlSiSn(PO6)2,3.365999999999999,-7.080336520166667,-2.709731162087849
mp-2715408,Na3LaHfSi(PO6)2,3.94,-7.804382454000001,-3.076874673421182
mp-2715409,Na3HfScSi(PO6)2,4.6269,-7.918186226666667,-3.120855346087849
mp-2715405,Na3TiAlSi(PO6)2,2.5235000000000003,-7.501460517666667,-2.936559151504516