Material_ID,Formula,Band_Gap,Energy_per_Atom,Formation_Energy_per_Atom
mp-39226,SrLa4TiAl4O15,2.099999999999999,-8.418215640000001,-3.676868963133334
mp-1244983,FeO,0.29050000000000004,-7.912689878500001,-1.203698771
mp-1245001,FeO,0.0459,-7.87017230225,-1.16118119475
mp-1245168,FeO,0.0541,-7.884815774250001,-1.17582466675
mp-1354450,FeO2,0.0,-7.27321944611111,-1.151238372777776
mp-1181766,FeO2,0.0,-7.364353814166666,-1.242372740833333
mp-1062652,FeO2,0.0,-7.28793603,-1.165954956666667
mp-1178232,FeO,0.0,-8.17847444,-1.4694833325
mp-1274279,FeO,1.8157,-8.190510495,-1.481519387499999
mp-756436,FeO,0.9475000000000001,-8.07488221,-1.3658911025
mp-863316,FeO3,0.30509999999999904,-6.35503656125,-0.5265605050000001
mp-753682,FeO,0.0,-8.1034085,-1.3944173925
mp-850222,FeO2,0.0,-7.39937863,-1.277397556666667
mp-1181437,FeO,1.886099999999999,-7.137647555000001,-0.42865644750000004
mp-715262,FeO,0.0,-8.18123044,-1.4722393325
mp-25332,FeO2,0.0,-7.377403924999999,-1.255422851666666
mp-714904,FeO2,0.0,-7.264930773333333,-1.1429497
mp-1283030,FeO,1.7989000000000002,-8.17644863375,-1.46745752625
mp-2767639,FeO,0.0,-11.44442107,-1.253216565
mp-1355579,FeO2,0.0,-7.2646100916666665,-1.142629018333333
mp-1178247,FeO,2.0878,-8.07924274875,-1.370251641249999
mp-1443203,FeO2,0.0,-7.23542549,-1.113444416666666
mp-821313,FeO2,0.0,-7.26998772,-1.148006646666666
mp-1431292,FeO2,0.0,-7.235322956666667,-1.113341883333333
mp-25236,FeO2,0.0,-7.270640789999999,-1.148659716666666
mp-754765,FeO,0.0,-7.7276396287499995,-1.018648521249999
mp-849689,FeO,1.160999999999999,-8.086711036666667,-1.377719929166667
mp-1384466,FeO2,0.0,-7.224599431666665,-1.102618358333333
mp-1412685,FeO2,0.0,-5.562102143333333,0.55987893
mp-755189,FeO,1.0366,-8.0770237625,-1.368032654999999
mp-1974703,FeO,0.542999999999999,-11.38553391375,-1.19432940875
mp-18905,FeO,0.0,-7.780335750000001,-1.0713446425
mp-540003,FeO2,0.0,-7.224450618333333,-1.102469545
mp-1205429,FeO2,0.0,-7.3583738025,-1.236392729166667
mp-1047285,FeO2,0.0,-7.153863232916667,-1.031882159583333
mp-796259,FeO2,0.0,-7.340101835833333,-1.2181207625
mp-1097003,FeO2,0.0,-7.268987741666667,-1.147006668333334
mp-1395285,FeO2,0.0,-7.286377344999999,-1.164396271666666
mp-1387762,FeO2,0.0,-7.170346545833333,-1.0483654724999991
mp-1359196,FeO2,0.0,-7.273626286666667,-1.151645213333334
mp-1355192,FeO2,0.0,-7.204047814722222,-1.082066741388888
mp-1350825,FeO2,0.0,-7.210644380416666,-1.088663307083333
mp-796324,FeO2,1.1543,-7.364731795,-1.2427507216666671
mp-1178239,FeO,0.0,-7.89044325875,-1.18145215125
mp-1178259,FeCo3O8,0.19440000000000002,-6.835049698125,-1.047219747291667
mp-1181604,FeHO2,1.4013,-6.86827324,-1.427995825312499
mp-1182431,FeHO2,1.2074,-6.806524843125,-1.366247428437499
mp-1182152,FeHO2,0.8840999999999991,-6.85639469109375,-1.416117276406249
mp-1182700,FeHO2,1.585799999999999,-6.8835835703125,-1.443306155624999
mp-1217466,Ti6FeO16,0.0,-8.492976628695653,-2.622961437826087
mp-1225011,FePO4,1.6047,-7.89867970138889,-2.285789908829365
mp-1244517,Na3FeO3,1.0166,-5.541632590357143,-1.636051653091132
mp-1244876,CrFeO3,0.7842,-7.871101631,-1.277711291999998
mp-1245071,Cr7FeO12,0.28689999999999904,-8.67420701075,-1.9033627327499991
mp-1245072,CrFeO3,0.47850000000000004,-8.182853863375,-1.589463524374998
mp-1245032,Cr7FeO12,0.4978,-8.644530336999999,-1.873686058999999
mp-1244873,Cr3FeO6,0.014400000000000001,-8.52922410575,-1.817531140749999
mp-1245016,Cr3FeO6,0.7140999999999991,-8.5422875995,-1.830594634499999
mp-1244957,Cr7FeO12,0.31769999999999904,-8.66532289825,-1.894478620249999
mp-1244931,Cr3FeO6,0.6695000000000001,-8.555790698375,-1.844097733375
mp-1244905,CrFeO3,0.094199999999999,-8.199979077875001,-1.606588738875
mp-1244976,Cr3FeO6,0.4133,-8.471328133125,-1.759635168125
mp-1245147,CrFeO3,0.480199999999999,-8.171789855750001,-1.578399516749999
mp-1245260,CrFeO3,0.387,-8.222712766250002,-1.629322427249999
mp-1245235,Cr7FeO12,0.012499999999999001,-8.5875284905,-1.8166842125000002
mp-1245204,CrFeO3,0.6733,-8.24865710575,-1.6552667667499992
mp-1245241,Cr7FeO12,0.37420000000000003,-8.6315475415,-1.8607032634999991
mp-1245230,Cr7FeO12,0.47080000000000005,-8.6505004815,-1.879656203499999
mp-1245083,Cr3FeO6,0.472699999999999,-8.522156576499999,-1.810463611499999
mp-1245144,CrFeO3,0.44070000000000004,-8.22247648325,-1.6290861442499982
mp-1245179,CrFeO3,0.42550000000000004,-8.23121358425,-1.6378232452499981
mp-1279763,Na4FeO5,0.0128,-5.3089333375,-1.451262402551724
mp-1280477,Na4FeO5,0.0,-5.320239512750001,-1.4625685778017241
mp-1279528,Na4FeO5,0.0,-5.321698331749999,-1.4640273968017241
mp-1279759,TiFeO4,0.07640000000000001,-8.380036917083332,-2.353810709305556
mp-1380484,FeP2O7,0.0,-7.4016735825,-2.008004052928571
mp-1388887,ZnFeO2,0.4676,-6.28687283875,-1.38045113125
mp-2215234,V5FeO12,0.04089999999999901,-8.577372188333333,-2.284867542777778
mp-2216699,FePO4,2.7489,-7.937054877083333,-2.324165084523809
mp-551451,FeBiO3,1.6259000000000001,-6.677269874000001,-1.236482167000001
mp-625883,FeHO2,1.3024,-6.8785905275,-1.438313112812499
mp-625838,FeHO2,1.3829,-6.86977480640625,-1.429497391718749
mp-626070,FeHO2,0.0378,-6.707296704062499,-1.267019289374999
mp-626305,FeHO2,0.0,-6.711012473749999,-1.270735059062499
mp-626573,FeHO2,1.0074,-6.81432565109375,-1.374048236406249
mp-626570,FeHO2,0.2343,-6.78620336859375,-1.345925953906249
mp-675305,NbFeO4,1.7029,-8.82224259625,-2.428380884583333
mp-694948,TiFeO3,0.0,-8.256230565625,-2.014351317291667
mp-754951,Fe(SbO3)4,0.0,-6.604715565294118,-1.642270963529411
mp-755912,FeOF,1.649599999999999,-7.133737972777778,-2.023126442777778
mp-755758,FeOF,1.3565,-7.126502399444444,-2.015890869444444
mp-757766,FeBi25O39,2.2279,-6.214278432615384,-1.619026768692307
mp-759744,MnFeO3,0.0017000000000000001,-8.28910690325,-1.793922999836208
mp-775001,V3FeO8,1.2565,-8.474774534166666,-2.199322245833333
mp-780207,Li5FeO4,2.4071,-5.76539473725,-1.9847467809166661
mp-780192,Li5FeO4,2.6187,-5.7756257765,-1.9949778201666661
mp-861691,FeOF,1.2973,-7.130181574999999,-2.019570044999999
mp-861324,GaFeO3,0.0,-2.575484098,2.6929159515
mp-868005,GaFeO3,2.1227,-7.2197755185,-1.951375469
mp-755359,FeOF,0.0,-7.137801464166667,-2.027189934166667
mp-755732,FeCoO4,0.0,-6.9935835650000024,-1.094369906666667
mp-763436,FeOF,0.9122999999999991,-7.139849604999999,-2.029238075
mp-763065,FeOF,1.0406,-7.128670090555556,-2.018058560555556
mp-761563,Mn2FeO3,0.1081,-8.714632345833333,-1.774976544310345
mp-761281,FeSbO4,0.0,-7.232766330833332,-1.834288585833332
mp-861559,TaFeO4,1.869099999999999,-9.328597315277777,-2.6404651864999993
mp-761390,TaFeO4,0.0,-9.362115119166665,-2.673982990388886
mp-1105916,FeSO7,0.0,-6.032459295555555,-0.783113983055554
mp-1181394,FeBiO3,0.12760000000000002,-6.8585577465,-1.4177700395000001
mp-1181666,FeSO7,0.0,-6.015971839444444,-0.7666265269444431
mp-1639105,CdFeO3,0.0,-6.156007203,-1.30122432
mp-26120,Fe(PO3)5,0.0,-7.470379172380952,-2.243388509914965
mp-540145,Fe(PO3)5,0.5524,-7.5102805745238115,-2.283289912057823
mp-626495,FeHO2,1.577999999999999,-6.934482871875,-1.494205457187499
mp-1079680,CaFeO2,1.8059999999999992,-7.448766978125,-2.355881203124999
mp-1178209,FeSbO4,1.4272,-7.204311489166667,-1.8058337441666672
mp-755390,NbFeO4,0.7564000000000001,-8.851879351666666,-2.45801764
mp-754900,TiFeO4,0.0,-8.384019600833332,-2.3577933930555552
mp-1047067,ZnFeO2,0.0,-6.3055139525,-1.399092245
mp-1079439,Fe(ClO2)3,0.0,-4.221732758,0.148608806
mp-1177943,Li2FeO2,3.1408,-6.273015041,-1.836257250333333
mp-1193035,FeBiO3,1.6433,-7.058785729999999,-1.6179980230000002
mp-1212773,Fe(CO)6,0.0,-7.379753405384615,-0.185154928846153
mp-1213438,Fe(BO)6,0.5643,-7.676446136923077,-1.6584355319230761
mp-1222209,Mg4FeO5,3.4563,-6.694192341749999,-2.721021712249999
mp-1237181,Fe(BO)6,0.0,-7.412825432307692,-1.394814827307691
mp-1274672,FeHO2,2.0566,-6.91971238625,-1.479434971562499
mp-1273130,Mg3FeO4,3.2759,-6.790668893749999,-2.646509484374998
mp-1272250,Fe(HO)2,2.310399999999999,-6.3913961225,-1.360140903
mp-1273830,Mg4FeO5,3.2624,-6.6971126395,-2.723942009999999
mp-1282942,Li3FeO4,0.0,-6.010566950625,-1.7619877218750002
mp-1410375,MgFeO2,1.2769,-6.998377706249999,-1.999274397499999
mp-26614,FeP2O7,0.0,-7.609131671499999,-2.21546214192857
mp-31761,NbFeO4,1.8298,-8.88775719,-2.493895478333334
mp-31874,Fe(PO3)4,0.36400000000000005,-7.615330548823529,-2.350186585798317
mp-504570,K3FeO3,0.0,-5.450159260714275,-1.634728775964275
mp-505526,FeMoO4,2.037,-8.393101805,-1.875182581666667
mp-555287,Rb3FeO3,0.49190000000000006,-5.338097818928571,-1.587311184285714
mp-556667,FeMoO4,1.513199999999999,-8.3844594025,-1.866540179166666
mp-752790,LiFeO3,0.1985,-6.437056763000001,-1.392491344666667
mp-753618,Mn9FeO10,0.15080000000000002,-8.915176474999999,-1.8947880305689662
mp-754792,CrFeO4,0.7708,-7.949543209583333,-1.630391092916666
mp-754962,Mn2FeO6,0.0,-7.847613445555556,-1.57185590954023
mp-754944,TaFeO4,1.384299999999999,-9.356338935833334,-2.668206807055554
mp-755276,Mn5FeO12,0.0032999999999990003,-7.9920930794444445,-1.677891427758619
mp-756471,FeCo5O12,0.0,-6.812755416666667,-1.062053368333333
mp-757061,Mn4FeO8,0.0,-8.329818603846153,-1.814297802440318
mp-759749,KFeO2,0.0,-6.556404083125,-1.6820758474375
mp-760247,Na2FeO3,0.0,-5.949313803333332,-1.616422839626435
mp-761189,LiFeO3,0.0,-6.177499294,-1.132933875666667
mp-761530,Fe(CoO3)2,0.0,-6.902405227777777,-1.077447374444444
mp-764457,Na3FeO4,0.3186,-5.5792614928125,-1.543383047079741
mp-849695,Li2FeO3,0.0,-6.342125110833333,-1.820166784444444
mp-887724,Li2FeO3,1.0267,-6.39640427375,-1.8744459473611101
mp-25261,Fe(SeO3)2,0.0,-6.226942132222223,-1.2103187771875001
mp-1181635,FeBiO3,0.0,-5.012193886,0.42859382099999904
mp-1221648,MnFeO2,0.0,-8.3177909875,-1.435801359482759
mp-1222302,LiFeO2,0.103299999999999,-6.8939236675,-1.8252071458333332
mp-19842,CaFeO2,0.04020000000000001,-7.39529864,-2.302412865
mp-21145,SrFeO2,0.0,-7.3061605725,-2.291567745
mp-1041598,Fe(WO4)2,0.0,-8.545754652727272,-1.821211951818181
mp-1180150,Nb2FeO6,2.0751,-9.183987690833334,-2.699499099722223
mp-1314196,Na2FeO3,0.0,-5.96066435125,-1.627773387543103
mp-22194,NbFeO4,0.0,-8.824900628333333,-2.431038916666666
mp-19421,FeWO4,2.401,-8.892696,-2.022696756666667
mp-2760630,Mg4FeO5,1.1179000000000001,-8.733428145000001,-2.639857662
mp-761526,FeCoO4,0.0,-7.02265521,-1.123441551666667
mp-761315,MnFeO4,0.0,-7.748444090833334,-1.5111306704885061
mp-755143,Na3FeO4,0.0,-5.5738118646874995,-1.537933418954741
mp-755628,TaFeO4,0.22149999999999903,-9.353778756666665,-2.6656466278888873
mp-753333,FeOF,1.9005,-7.134985693333334,-2.024374163333334
mp-22265,Fe(SbO2)2,0.5327000000000001,-6.9249625282142855,-1.707838569642855
mp-756549,Fe(AsO2)2,2.5252,-6.870535019642857,-1.4988049775
mp-1224752,Fe(ReO3)2,0.0,-8.828292157222222,-1.8222904177777781
mp-31755,Ta2FeO6,2.7333,-9.853258906111147,-2.9764097588518883
mp-505009,Fe(SbO3)2,0.5366000000000001,-7.026841844166666,-1.8695318752777772
mp-771894,Li3FeO3,1.9077000000000002,-6.08940821,-1.940740663571428
mp-755280,Na6FeO4,0.9684,-4.7529137702272735,-1.45180559734326
mp-756155,Li6FeO4,2.7019,-5.572234614090909,-1.961743484090909
mp-1221857,Mn4FeO5,0.0,-8.823344133,-1.837555392672415
mp-19102,Sr2FeO4,0.0,-7.032766641428571,-2.51180644
mp-754360,Li3FeO4,0.0,-6.008263516249999,-1.759684287499999
mp-1042861,FeAs2O7,0.0,-6.65398666375,-1.40938733275
mp-1044639,Fe(GeO3)2,0.067399999999999,-6.998415026111111,-1.7313213650000001
mp-1048396,FeP2O7,0.3708,-7.59474139475,-2.2010718651785712
mp-1101417,Rb3FeO3,2.265199999999999,-5.285825997857144,-1.535039363214286
mp-1178165,K2FeO4,1.6197,-5.766546856071428,-1.4058890452857131
mp-1181718,FeSO8,0.768699999999999,-5.604572627,-0.38536574525
mp-1181631,FeSO8,0.398099999999999,-5.726443637,-0.507236755249999
mp-1193066,Cs3FeO3,2.1129000000000002,-5.266945838214285,-1.547254847352217
mp-1194306,FeSeO5,0.2813,-6.004720580714286,-0.761043764620536
mp-1195856,FeSO8,0.0,-5.78816896175,-0.56896208
mp-1195898,Na4FeO3,1.1884000000000001,-5.11077419,-1.5256757725646541
mp-1196307,FeSe3O8,0.0,-6.091949541249999,-1.213495901002603
mp-1196792,FePO6,0.34129999999999905,-6.914465579375,-1.467807983705356
mp-1197159,FeP2O7,0.0,-7.547961421375,-2.154291891803571
mp-1197109,FeSO11,0.08599999999999901,-5.225844026923077,-0.069232347499999
mp-1197402,FeTeO5,0.9235000000000001,-6.031592419821429,-0.8382878300595231
mp-1199904,FeBO3,1.517599999999999,-8.17708015475,-2.178420955583333
mp-1201003,Cs4FeO4,2.000199999999999,-5.041896013333333,-1.498143178735633
mp-1201086,Fe(SeO3)2,0.324,-6.2386924275,-1.222069072465278
mp-1201412,Cs5FeO4,1.3283,-4.730160833249999,-1.4499855250775862
mp-1201977,FePO6,0.0,-6.716135525625,-1.269477929955356
mp-1213228,Fe(ClO2)2,2.2922000000000002,-5.051492062142857,-0.48592765785714204
mp-1272846,CaFeO3,0.060700000000000004,-7.2877994345,-2.2238986135
mp-1272755,Li2FeO2,3.040599999999999,-6.2724262065,-1.8356684158333332
mp-1290304,CdFeO3,0.0,-6.1633916635,-1.308608780499999
mp-21016,FeAsO4,1.557999999999999,-7.188357069999999,-1.699692442916665
mp-26750,FeP2O7,0.0,-7.63430674225,-2.240637212678571
mp-26566,FeP2O7,0.0,-7.651575681,-2.257906151428571
mp-26644,FeP2O7,0.11649999999999901,-7.650932420249999,-2.25726289067857
mp-30947,Na3FeO3,2.3505000000000003,-5.607157600714286,-1.7015766634482752
mp-504149,FePO4,2.8055,-7.936293684305557,-2.323403891746032
mp-542120,Ba2FeO4,1.9953999999999992,-6.978271274999999,-2.392583402142856
mp-559436,Fe(BO2)2,4.0261,-8.277229829107142,-2.33142286172619
mp-559626,Fe(SbO2)2,1.7654,-6.797024808928571,-1.579900850357142
mp-561445,FePO4,1.7056,-7.955796407499999,-2.342906614940476
mp-562735,Cs5FeO4,0.762699999999999,-4.7292463005,-1.449070992327587
mp-694541,FePO4,2.6719,-7.910473752916666,-2.297583960357143
mp-690058,FeP2O7,0.184199999999999,-7.59591298525,-2.202243455678571
mp-752872,FePO4,1.5931000000000002,-7.869858512916667,-2.256968720357143
mp-754053,FeOF,0.005099999999999,-7.210266804166667,-2.099655274166667
mp-755490,Na2FeO3,0.6359,-5.904310302916667,-1.571419339209769
mp-756419,ScFeO3,1.2694,-8.629074974,-2.699800307999999
mp-756020,Rb3FeO3,0.5949,-5.325777395,-1.574990760357142
mp-757415,Na2FeO2,0.8314,-5.7113818455,-1.501504890051724
mp-759543,FeOF,0.0,-7.219730530833334,-2.109119000833333
mp-759361,FeP4O11,3.5753999999999992,-7.76192767953125,-2.4769597816294633
mp-759779,FeP4O11,3.7104,-7.76165137984375,-2.476683481941963
mp-766012,FeP2O7,0.0,-7.655685835750001,-2.262016306178572
mp-768685,Rb5FeO4,1.434,-4.78986883125,-1.473415271999999
mp-768710,Rb3FeO3,1.1313,-5.228285653214286,-1.477499018571428
mp-770075,Rb5FeO4,1.2528000000000001,-4.74231365025,-1.425860090999999
mp-769712,Rb3FeO3,2.053,-5.315924875357142,-1.565138240714285
mp-770834,Li5FeO4,2.8302,-5.776769935999999,-1.996121979666666
mp-770885,Li3FeO3,2.3432,-6.094226316071428,-1.9455587696428571
mp-770923,Li5FeO4,2.9721,-5.7512949895,-1.9706470331666661
mp-772056,Mg2FeO4,0.014299999999999001,-6.751178835357143,-2.247920941071428
mp-818574,Fe(SeO3)3,0.6845,-6.027166641730769,-1.143366281117789
mp-818400,FeSO6,0.029,-6.0955013196875,-0.808482968749999
mp-828605,Rb4FeO4,0.581499999999999,-5.102746711111111,-1.526746542222222
mp-1104680,Cr2FeO4,0.0,-8.975810160714286,-2.180387279285714
mp-18782,LiFeO2,0.0,-6.9934313562499995,-1.924714834583333
mp-754642,Mn2FeO4,0.0,-8.556566397857143,-1.9014384244088682
mp-818655,Fe(TeO3)2,0.3005,-6.334395975972223,-1.396129417453704
mp-1303831,MgFeO3,0.229499999999999,-6.998474354000001,-2.009599506
mp-1272388,FeNiO3,0.0,-7.099244788,-1.280436607
mp-654759,FeBiO3,1.1601,-6.52657535,-1.085787643
mp-655631,FeBiO3,1.7789000000000001,-6.6749197460000005,-1.234132039
mp-548231,FeBiO3,0.0,-7.053073915999997,-1.612286208999997
mp-698573,FeBi25O39,2.1319,-6.212365813076922,-1.617114149153846
mp-704220,FePO4,1.3729,-7.919246018888889,-2.306356226329365
mp-754389,FeOF,1.7936,-7.132046668888888,-2.021435138888888
mp-752471,Li7FeO6,0.3274,-5.555784313571427,-1.875766648809523
mp-772225,Fe(SO4)2,0.0,-6.755763047272727,-1.634815012272726
mp-771312,Fe(SO4)2,0.0,-6.759457817575758,-1.638509782575757
mp-1078458,CrFeO3,0.0,-8.620241222,-2.026850883
mp-1181880,FeSO10,0.41739999999999905,-5.541939159861111,-0.36793992423611005
mp-1182686,FeSO10,0.1726,-5.474887790138889,-0.300888554513888
mp-1199695,FeSO10,0.0,-5.505510421527777,-0.331511185902777
mp-19417,TiFeO3,2.7436,-8.959550826000001,-2.717671577666666
mp-540655,FeSO3,2.7701000000000002,-7.138344802666667,-1.647892044166667
mp-561036,FeTe6O13,2.3607,-6.09142512525,-1.5087576434999992
mp-752929,Fe(CO3)2,0.0,-7.875127523333333,-1.5845588316666661
mp-754508,MgFeO3,0.0,-6.997321393999999,-2.008446545999999
mp-755099,ZnFeO3,0.0,-6.380725602,-1.465996034999999
mp-754915,NaFeO3,0.0,-6.314208284,-1.383083283275861
mp-771897,Li6FeO6,0.0,-5.595002682307693,-1.7787469561538471
mp-768499,FeNiO3,0.38419999999999904,-7.094728297,-1.275920116
mp-1043501,Fe(GeO3)2,0.0,-7.00263,-1.7355363388888891
mp-1048924,FePO4,1.0416,-7.762750788124999,-2.149860995565475
mp-1104448,Fe(BO2)2,3.8031,-8.398842066785715,-2.453035099404762
mp-1104227,FeSeO5,0.312,-6.341003782142857,-1.097326966049106
mp-1105054,FeSO5,0.0,-6.86327449357143,-1.5278193789285721
mp-1104530,FeSO5,0.23210000000000003,-6.872435562857143,-1.536980448214286
mp-1181396,FeP3O11,1.5453000000000001,-6.893010921666667,-1.616743398928571
mp-1212855,FePO5,0.0,-7.208606265952381,-1.690706300187074
mp-1289684,Na4FeO5,0.0,-5.30805442475,-1.4503834898017232
mp-1274785,V2FeO4,1.2226,-8.84127954,-2.208468487142857
mp-1354918,Fe(PO3)4,0.0,-7.592393720882351,-2.327249757857141
mp-22334,FeGeO3,1.9617,-7.504117007,-1.9167305910000012
mp-25197,Fe(WO4)2,0.0,-8.570536380909092,-1.845993679999999
mp-25964,Fe(PO3)4,0.0815,-7.587627613823529,-2.322483650798318
mp-26336,Fe(PO3)4,0.181199999999999,-7.568472030588235,-2.303328067563024
mp-26270,Fe(PO3)4,0.0,-7.592320629117647,-2.327176666092436
mp-26214,FeP2O7,0.0,-7.63279720275,-2.239127673178571
mp-540072,Fe(PO3)4,0.0,-7.58258217882353,-2.317438215798319
mp-616561,Fe(CO)5,3.4783,-7.898517662727273,-0.684594599318183
mp-649683,Fe(PO3)2,2.3833,-7.9137260652777766,-2.470533366309521
mp-725152,Fe(CO3)2,0.459999999999999,-7.2606028938888905,-0.970034202222223
mp-752416,MgFeO3,0.11290000000000001,-6.936062445499999,-1.947187597499998
mp-752521,LiFeO3,0.33329999999999904,-6.462050524,-1.417485105666666
mp-755535,ZnFeO3,0.0,-6.3785908425,-1.4638612755
mp-755303,TaFeO4,1.1922,-9.255837565,-2.567705436222221
mp-758879,FeO2F,0.0,-6.32664616625,-1.256697267499999
mp-757078,V2FeO6,1.6895,-8.454692796111111,-2.196292865
mp-759516,Na2FeO3,0.0,-5.9325876783333324,-1.5996967146264351
mp-768845,RbFeO2,0.0,-6.4866555481249994,-1.650036225
mp-776272,Mn5FeO12,0.0,-7.9787615730555554,-1.664559921369731
mp-849295,FeBO3,0.512999999999999,-8.1663691055,-2.167709906333333
mp-19109,FePO4,2.6991,-7.9548575179166665,-2.341967725357142
mp-1225276,Fe(ClO7)2,0.0,-4.722241874705881,0.068261706470589
mp-1225189,FeMoO,0.0,-7.90081714,0.187060301666666
mp-755285,FeHO2,2.1185,-6.912191930625,-1.4719145159374991
mp-1205225,FeP2O9,0.0684,-6.747219710555556,-1.427834935079366
mp-26612,FePO4,1.2418,-7.7998809475,-2.186991154940476
mp-1096980,FeAgO2,0.5564,-6.3575906425,-1.055370417916666
mp-22949,FeBiO3,1.7783,-7.08161758,-1.640829873
mp-705845,BaFeO3,0.0,-6.7358719659999995,-1.6892961329999991
mp-771245,FeCo3O8,0.0,-6.828403001666666,-1.040573050833333
mp-23501,FeBiO3,1.279099999999999,-7.113564488,-1.672776781
mp-19270,TiFeO3,2.052199999999999,-8.939818291,-2.697939042666667
mp-626680,Fe(HO)2,2.4707,-6.391436579,-1.360181359499999
mp-754868,Li2FeO2,2.9202,-6.2620980305,-1.825340239833333
mp-1201743,FeAsO6,0.1115,-6.225678667500001,-0.8721899459375011
mp-1176616,Mn3FeO8,0.0,-7.924722385833333,-1.629742791982758
mp-1178920,TlFeO2,1.0416,-6.3513986875,-1.167044853333335
mp-1222159,Mg4FeO5,2.8227,-6.696896961999999,-2.723726332499999
mp-1222155,Mg3FeO4,2.9302,-6.78884002875,-2.6446806193750003
mp-1274527,V2FeO4,0.0,-8.782064239285715,-2.149253186428571
mp-1286841,Mg4FeO5,0.020799999999999003,-6.695715363,-2.722544733499999