Material_ID,Formula,Band_Gap,Energy_per_Atom,Formation_Energy_per_Atom
mp-1370970,Zn2FeSbO6,1.3843,-6.2152398845,-1.7346123145
mp-1345547,Mg2TaFeO6,1.9989999999999992,-8.090838852000001,-2.7622733707333342
mp-1341944,Ca2TaFeO6,1.2064,-8.439229898,-3.035638443733334
mp-1340585,TaZn2FeO6,1.674599999999999,-7.470900833,-2.216480632733334
mp-25247,FeMoClO4,1.5697,-7.596625075714286,-1.745760504285714
mp-26613,LiFeP2O7,2.2934,-7.566219529772727,-2.489345151374458
mp-622558,DyFeGe2O7,1.831799999999999,-7.659046550454545,-2.479939324696968
mp-705356,Li2Fe(PO3)5,1.6862,-7.48555936173913,-2.547096333690476
mp-727170,KCr2FeO9,0.1063,-7.139649991538461,-1.490485767096153
mp-752621,Li3FeB4O9,3.1077999999999992,-7.606222474411764,-2.579986830980392
mp-754558,FeNi(PO4)2,0.0,-7.506890862916667,-2.11815811452381
mp-772031,NbFe(PO4)2,0.0903,-8.298659470833334,-2.549829359107143
mp-757451,Li3Fe(PO4)2,2.4843,-7.108883187142857,-2.493781408520408
mp-756141,FeTe(PO4)2,3.0095,-7.373217008125,-2.204220158621031
mp-756899,MnFe(PO4)2,0.8860999999999991,-8.046556314166667,-2.376000348101397
mp-760008,Li3Fe(PO4)2,2.4517,-7.171689886964286,-2.556588108341837
mp-756346,FeP2WO8,0.0,-8.34566689,-2.358768012440476
mp-774620,VFe(PO4)2,1.394299999999999,-8.155429048333334,-2.491382184107143
mp-775167,FeCu(PO4)2,0.0,-7.335031163749999,-2.086375916190475
mp-773399,Li3Fe(PO4)2,2.4956,-7.176709045714285,-2.561607267091837
mp-775299,FeCo(PO4)2,0.6879000000000001,-7.666567367916667,-2.165061282857143
mp-775018,TiFe(PO4)2,1.8074,-8.315388034583334,-2.750375674801587
mp-861612,CrFe(PO4)2,2.1953,-8.149783141666667,-2.438307827440476
mp-861596,FeSb(PO4)2,0.0,-7.534945961249999,-2.283807832857141
mp-1190820,Ba2FeGe2O7,0.0,-7.215684845416667,-2.533205359166666
mp-1191511,K2FeP2O7,4.1612,-7.155679660416666,-2.472393431982142
mp-756604,Li2FeP2O7,3.890799999999999,-7.311269216875,-2.498390797787698
mp-754700,Li4V3FeO10,1.2339,-7.47530186111111,-2.317688475740741
mp-1177839,Li2TiFeO4,0.8816,-7.5497777940625,-2.5528774215625
mp-1177950,Li2FeCuO4,0.0,-6.21081963625,-1.688454932083333
mp-1177955,Li2FeCoO4,0.0,-6.6617972000000005,-1.760156239583334
mp-2227249,Sr2MgFeO4,1.412399999999999,-6.45225311125,-2.292604183125
mp-753050,Li2FeNiO4,0.0,-6.450234415000001,-1.717753459583333
mp-754336,Li2MnFeO4,0.0,-7.1845705475,-2.029354765574712
mp-754901,Li2CrFeO4,1.279999999999999,-7.3629287275,-2.146333923333333
mp-867736,Li2VFeO4,0.0,-7.2783218025,-2.132869673333333
mp-1078132,La2Fe(SeO)2,1.1414,-7.63418284,-2.601357070669643
mp-1078159,Ce2Fe(SeO)2,0.0,-7.7847355785714285,-2.465926162098213
mp-1102092,NaFe(SO4)2,2.0944,-6.757144760625,-1.951132330323275
mp-1104229,YFeCl2O3,0.0,-6.650485039285714,-1.8619019928571432
mp-1104716,KCr2FeO10,0.0,-6.833177044285715,-1.234098764089286
mp-1177754,Li3Fe(CuO2)4,0.0,-5.776590606875,-1.390509073749999
mp-1177503,Li4Cr3FeO8,0.0238,-7.583094674374999,-2.292560728958332
mp-1177773,Li3Fe(CoO2)4,0.0,-6.720188829375,-1.57555478375
mp-1202382,Mn2Fe(CO)14,1.656699999999999,-7.997180259677419,-0.7305085577697441
mp-1208152,TlCr2FeO10,0.0,-6.747715114285715,-1.060058091666667
mp-1208083,TlCr2FeO8,1.858899999999999,-7.446665005833334,-1.635725313611112
mp-1210226,NaCr2FeO10,0.0,-6.815908837857143,-1.201805482241379
mp-1212190,HoFeGe2O7,1.2691,-7.450783665909091,-2.273557900454544
mp-1210261,NaCr2FeO8,1.662,-7.4630799408333335,-1.737952860114942
mp-1212721,FeAg(SO4)2,1.6382999999999992,-6.584512945833333,-1.6533991072222212
mp-1213525,ErFeGe2O7,2.6630000000000003,-7.660627206363636,-2.486125136818181
mp-1213831,Cr2FeNO10,0.0,-6.591859144285714,-0.47800171964285704
mp-1218297,SrFeO2F,0.6625999999999991,-7.012030452,-2.617585715
mp-1218233,Ta6Mn2FeO18,2.292699999999999,-9.97937373388889,-3.051265765735633
mp-1218610,Sr5FeMo4O15,0.0,-7.9140661784,-2.532699091399999
mp-1218575,Sr5Ti4FeO15,0.24710000000000001,-8.1827694392,-3.273427647133333
mp-1216789,V2Fe(CuO2)3,0.6603,-7.373485435,-1.654883819166666
mp-1218824,Sr2FeSbO6,1.6733,-7.0909342075,-2.523769741499999
mp-1225454,Dy2FeMoO7,0.0,-8.476227815454545,-2.731850596212119
mp-1279561,Sr2HfFeO6,0.34399999999999903,-8.1207746975,-2.9707914525000003
mp-1274264,Li2TiFeO4,1.3399,-7.564109514375,-2.567209141875
mp-1278360,Sr2FeWO6,0.5759999999999991,-8.070345007,-2.620267642
mp-1285981,Li2TiFeO4,1.6326,-7.564541507187499,-2.567641134687499
mp-1291664,Li2FeCo3O8,0.0,-6.691105422857142,-1.45740505547619
mp-20968,KFe(SO4)2,2.1783,-6.781761590208333,-1.9932784145625
mp-19483,TmFeGe2O7,0.0,-7.6591786200000005,-2.492423580454545
mp-2218663,MgMn3FeO8,0.5975,-7.889128296153847,-1.9529571314456242
mp-2226478,MgMn4FeO8,0.0,-8.152678435714286,-1.986089833337439
mp-2224801,MgFeCo3O8,0.0,-6.899946315384615,-1.431913282692307
mp-2226166,NaMgFeO2,0.0,-5.287243613999999,-1.019616811275862
mp-2224752,MgFeCo3O8,0.0,-6.95175816923077,-1.4837251365384612
mp-23880,FeH4(ClO)2,3.851899999999999,-5.265790596666666,-1.305381452777777
mp-26901,Li4FeP2O9,0.0,-6.9186340846875005,-2.451864786413691
mp-26575,Li3Fe(PO4)2,1.952999999999999,-7.161700541428571,-2.546598762806122
mp-25845,Li2FeP2O7,4.2417,-7.3516859058333335,-2.5388074867460313
mp-540356,LiFe(PO3)4,2.5331,-7.593619208055555,-2.51493197260582
mp-549711,CaFeClO2,0.6341,-6.818034057,-2.374016877
mp-558367,KCr2FeO8,1.7437,-7.5100613604166675,-1.8024635343541662
mp-561519,NaFe(SeO4)2,1.9104,-6.121679400833333,-1.422741652172234
mp-744184,TbFeGe2O7,2.6695,-7.6585147590909095,-2.477635888333332
mp-752518,Li4Fe(OF)2,3.006,-5.671863779722222,-2.357492731203704
mp-752830,Li2FeOF3,2.3968,-5.929214700714286,-2.646731118809524
mp-752570,Li3FeCo3O8,0.1623,-6.648705725333333,-1.6366571913333332
mp-752523,Li2FeNi3O8,0.0,-6.252180361428572,-1.308468574047619
mp-753978,Li2FeNi3O8,0.0,-6.227040970714285,-1.2833291833333331
mp-753275,Li3FeNi3O8,0.0,-6.209528125333334,-1.468135599333333
mp-754063,Li2FeBO4,1.374299999999999,-7.08769193,-2.242804088229166
mp-754028,Li2Fe(CO3)2,3.533,-7.429901328181819,-1.935995513787879
mp-754256,Li2CrFeO4,1.7883,-7.382664045625,-2.166069241458333
mp-755085,Li3V4FeO8,0.0,-7.893867294375,-2.26161091125
mp-755051,Li3Cr2FeO6,1.8965,-7.513707735833333,-2.247820170833333
mp-755201,Li3Fe(CuO3)2,0.09859999999999901,-5.906287425833334,-1.5660399941666672
mp-755458,Li3Cr3FeO8,0.770799999999999,-7.705306817999999,-2.189332134
mp-755721,Li4Cr3FeO8,2.3536,-7.5837520099999995,-2.293218064583333
mp-755818,Li2FeOF3,2.1822,-5.940831025357142,-2.65834744345238
mp-756110,Li2Fe(CuO3)2,0.0,-5.902021911818182,-1.340744974242425
mp-756377,Li3Mn4FeO8,0.0,-7.675591070625001,-2.02380738198276
mp-756410,Li4Mn5FeO12,0.0,-7.48119408,-1.967952207408568
mp-755927,Li2Cr3FeO8,0.0,-7.821021457857142,-2.04740021547619
mp-756058,Li2Cr3FeO8,0.39070000000000005,-7.839795387142857,-2.066174144761904
mp-756543,Li4FeCo5O12,0.0,-6.609888902272726,-1.557692159696969
mp-756845,Li4Cr5FeO12,0.037700000000000004,-7.770205810454545,-2.14536571560606
mp-757010,Li3Fe(NiO2)4,0.0,-6.333020311249999,-1.5267062756249992
mp-757121,Li3V2FeO6,1.0744999999999991,-7.484913947500001,-2.313883282500001
mp-761250,Li5FeO3F,2.5771,-5.631111269250001,-2.153874175916667
mp-763429,LiFe(CoO3)2,0.35659999999999903,-6.846107096999999,-1.412752742333333
mp-761602,Li3Fe(CoO3)2,0.5853,-6.624776721666667,-1.778827615
mp-765561,Li6Mn5FeO12,0.0,-7.254630567083333,-2.041748611652298
mp-765706,Li2VFeO4,0.9489000000000001,-7.330368840625,-2.184916711458333
mp-768945,Li2CrFeO4,1.6803,-7.3869208725,-2.170326068333334
mp-767438,YFeGe2O7,0.0,-7.819344248636363,-2.468353752727271
mp-763922,Li2FeCo3O8,0.18979999999999903,-6.701510232857143,-1.467809865476191
mp-774337,Li3Ti2FeO6,0.0,-7.676471119999999,-2.703509463888889
mp-770828,Li3Cr4FeO8,1.1787,-7.9469116375,-2.172369904375
mp-771072,Li3V3FeO8,0.7705000000000001,-7.6950032313333345,-2.292856827333334
mp-773709,Li3Fe(NiO3)2,0.0,-6.254035288333334,-1.633632855
mp-776565,Li2FeO2F,2.2161,-6.270044666666666,-2.253771111944443
mp-777446,Li3Mn2FeO6,0.3992,-7.218431983333333,-2.034383114655172
mp-863869,Li3Mn3FeO8,0.2117,-7.404348332666667,-1.986580084252874
mp-887364,Li3FeOF3,2.8447999999999993,-5.760245544375,-2.6494570518750002
mp-558555,LiFe(SeO3)2,2.6596,-6.300582079,-1.594728772802084
mp-1032124,HfMg6FeO8,0.2742,-6.88485693125,-2.6477495331250003
mp-1032129,Mg6CdFeO8,3.7338,-6.2325037043750005,-2.5577199837499993
mp-1032131,Mg6CdFeO8,4.1239,-6.17641669625,-2.5016329756249993
mp-1032137,Mg6FeCO8,2.5572,-6.387013248125,-2.19543857109375
mp-1032130,Mg6CrFeO8,0.7654999999999991,-6.82750230125,-2.609403750625
mp-1032138,Mg6CrFeO8,1.8436,-6.8175931625000015,-2.599494611875
mp-1032147,Mg6FeCO8,2.0795,-6.3445008375,-2.15292616046875
mp-1032234,Mg6FeBiO8,0.6569,-6.148276019374999,-2.290365791249999
mp-1032215,Mg6FeBiO8,0.6280999999999991,-6.1839959075,-2.326085679374999
mp-1032236,Mg6FeBO8,1.9238,-6.442738994374999,-2.4104939249479163
mp-1032172,Mg6FeBO8,1.0567,-6.35935458375,-2.327109514322917
mp-1032213,Mg6NbFeO8,0.084999999999999,-6.753758482499999,-2.507643833749999
mp-1032152,BaMg6FeO8,3.4644,-6.193700306249999,-2.458981288749999
mp-1032174,Mg6NbFeO8,0.921999999999999,-6.78631902375,-2.540204375
mp-1032382,NaMg6FeO8,1.7492,-6.34209576625,-2.643455133836207
mp-1032456,SrMg6FeO8,3.8979,-6.317780960625,-2.59722112125
mp-1032469,Mg6FeNiO8,3.125499999999999,-6.5086610825000015,-2.532619456250001
mp-1032519,KMg6FeO8,1.5281,-6.119716176874999,-2.434222485453124
mp-1032467,LiMg6FeO8,2.777799999999999,-6.473377605,-2.739286842083332
mp-1032412,RbMg6FeO8,0.5487000000000001,-5.982205494375,-2.30613903109375
mp-1032435,SrMg6FeO8,4.0408,-6.38299450125,-2.662434661875
mp-1032440,BaMg6FeO8,3.4813,-6.18345741,-2.4487383925
mp-1032499,Mg6VFeO8,3.106899999999999,-6.88224623875,-2.699719025625
mp-1032374,NaMg6FeO8,2.6866000000000003,-6.344939153749999,-2.646298521336206
mp-1032500,LiMg6FeO8,1.939299999999999,-6.464620845624999,-2.730530082708332
mp-1032516,Mg6TiFeO8,0.5167,-6.8212435025,-2.7129921677083333
mp-1032452,RbMg6FeO8,0.014499999999999002,-5.9803127525,-2.30424628921875
mp-1032498,KMg6FeO8,1.6256,-6.114997201875,-2.429503510453125
mp-1032691,Mg6FeSnO8,2.808799999999999,-6.313802199375,-2.4484208746875
mp-1032532,Mg6TiFeO8,0.48460000000000003,-6.79763013875,-2.6893788039583333
mp-1032577,Mg6FeCoO8,2.280999999999999,-6.581423125,-2.52080149625
mp-1032624,Mg6FeCuO8,0.068999999999999,-6.42362837875,-2.552644878125
mp-1032542,Mg6VFeO8,2.6041,-6.81366923625,-2.6311420231250002
mp-1032580,Mg6FeCoO8,0.367,-6.572611249375,-2.511989620625
mp-1032615,Mg6ZnFeO8,3.977499999999999,-6.295923891249999,-2.602406831874999
mp-1032625,Mg6ZnFeO8,4.087300000000001,-6.294738274999999,-2.601221215624999
mp-1032638,Mg6FeCuO8,0.1958,-6.387147450625,-2.51616395
mp-1032824,Mg6FeSnO8,2.242,-6.318692975625,-2.453311650937499
mp-1032839,Mg6MnFeO8,3.9525,-6.81120037375,-2.62379133424569
mp-1032862,Mg6MnFeO8,3.646599999999999,-6.8043778725,-2.61696883299569
mp-1032937,YMg6FeO8,1.1115,-6.729832334375,-2.708231031874999
mp-1033030,YMg6FeO8,1.5878,-6.762371554375,-2.740770251874999
mp-1032929,CaMg6FeO8,4.259500000000001,-6.539201148125,-2.799068071874999
mp-1032930,CaMg6FeO8,3.9951,-6.475767281875,-2.735634205625
mp-1035457,NaMg14FeO16,2.2862,-6.3383481478125,-2.844420076605603
mp-1035445,LiMg14FeO16,2.4032,-6.39628852125,-2.884635384791666
mp-1035521,BaMg14FeO16,3.9972000000000003,-6.2249232396875,-2.712955975937499
mp-1035468,HfMg14FeO16,0.025299999999999,-6.586633198749999,-2.823471744687499
mp-1035509,SrMg14FeO16,4.1698,-6.328035,-2.8231473253125
mp-1035459,Mg14FeCO16,1.968099999999999,-6.328610256562499,-2.588215163046874
mp-1035508,Mg14CdFeO16,4.013799999999999,-6.254159555625,-2.7721599403124992
mp-1035533,Mg14FeBiO16,2.9930000000000003,-6.238620150312499,-2.6650572812499993
mp-1035597,Mg14CrFeO16,0.9756,-6.571856746250001,-2.8181997159375003
mp-1035757,Mg14FeCuO16,0.0,-6.3561421340625,-2.77604262875
mp-1035591,RbMg14FeO16,0.14400000000000002,-6.157665046562499,-2.675024059921874
mp-1035685,Mg14VFeO16,2.8455999999999992,-6.578873613125,-2.8430022515625
mp-1035627,Mg14NbFeO16,1.786499999999999,-6.49769354375,-2.730028464374999
mp-1035770,Mg14TiFeO16,0.142599999999999,-6.573640299062499,-2.874906876666666
mp-1035531,Mg14FeBO16,0.045500000000000006,-6.3397902084375,-2.679059918723958
mp-1035604,CsMg14FeO16,0.0461,-6.076038585312499,-2.595664989364223
mp-1035756,Mg14FeCoO16,0.047599999999999004,-6.4541383590625,-2.7792197896875
mp-1035767,Mg14FeNiO16,0.0026000000000000003,-6.4201922546875,-2.787563686562499
mp-1035776,KMg14FeO16,1.5608,-6.232867905312499,-2.745513304601561
mp-1035812,Mg14ZnFeO16,0.0,-6.3139676178125,-2.8226013331249993
mp-1036060,YMg14FeO16,0.0,-6.529690951562499,-2.874282545312499
mp-1035892,Mg14FeSnO16,2.474499999999999,-6.3178800934375,-2.74058167609375
mp-1036194,Mg14MnFeO16,0.0,-6.5738348196875,-2.835522544935345
mp-1036442,CaMg14FeO16,0.0,-6.4078655346875,-2.893191241562499
mp-1036994,Mg30FeNiO32,3.4062,-6.3940054642187505,-2.93308342515625
mp-1036954,Mg30FeSnO32,0.0,-6.31022436953125,-2.876967405859375
mp-1036997,Mg30VFeO32,1.183899999999999,-6.45210248625,-2.93955905046875
mp-1036955,Mg30FeSnO32,1.6793,-6.32856027359375,-2.895303309921875
mp-1036996,Mg30TiFeO32,0.6284999999999991,-6.4486074618750004,-2.954632995677084
mp-1036993,Mg30FeCoO32,0.010399999999999,-6.3861796815625,-2.904112641875
mp-1037070,Mg30VFeO32,2.004,-6.470009504375,-2.957466068593749
mp-1037039,Mg30FeCoO32,0.0,-6.40161090609375,-2.91954386640625
mp-1037212,Mg30ZnFeO32,3.2203,-6.33603377875,-2.9457428814062503
mp-1037244,Mg30ZnFeO32,3.21,-6.3359702575,-2.94567936015625
mp-1037298,Mg30FeCuO32,0.0,-6.34792458953125,-2.913267081875
mp-1037305,Mg30FeNiO32,3.349899999999999,-6.39384038703125,-2.932918347968749
mp-1037344,Mg30FeCO32,0.0,-6.32274041671875,-2.8079351149609373
mp-1037357,Mg30FeCuO32,0.012999999999999,-6.34124241828125,-2.906584910625
mp-1037402,Mg30CdFeO32,0.0,-6.29102423609375,-2.9054166734375
mp-1037391,Mg30CdFeO32,2.9573,-6.3086205253125,-2.923012962656249
mp-1037415,Mg30FeBiO32,0.609399999999999,-6.2884682840625015,-2.85707909453125
mp-1037419,Mg30FeBiO32,0.0,-6.28626448046875,-2.8548752909375
mp-1037485,BaMg30FeO32,2.6279,-6.30675389015625,-2.90616250328125
mp-1037441,HfMg30FeO32,0.0,-6.448312408125,-2.92212392609375
mp-1037458,SrMg30FeO32,3.0823,-6.3489326025000015,-2.9518810101562503
mp-1037420,Mg30FeBO32,0.38010000000000005,-6.34326724,-2.868294340143229
mp-1037498,Mg30FeCO32,2.485299999999999,-6.34059744734375,-2.825792145585938
mp-1037499,HfMg30FeO32,0.0,-6.4656133028125,-2.93942482078125
mp-1037500,BaMg30FeO32,3.032199999999999,-6.3048640484375,-2.9042726615625
mp-1037532,Mg30NbFeO32,0.0,-6.429647839375,-2.9012075446875
mp-1037565,NaMg30FeO32,3.0685000000000002,-6.336897425625001,-2.945325635021552
mp-1037552,Mg30CrFeO32,1.3011,-6.44976506078125,-2.928328790624999
mp-1037572,SrMg30FeO32,3.0674,-6.350350780156249,-2.9532991878125
mp-1037501,Mg30NbFeO32,0.31810000000000005,-6.4444923684375,-2.91605207375
mp-1037542,Mg30FeBO32,0.0,-6.35575616515625,-2.880783265299479
mp-1037531,Mg30CrFeO32,1.615299999999999,-6.466710509999999,-2.945274239843749
mp-1037596,RbMg30FeO32,2.411799999999999,-6.2657334846875,-2.8798052363671873
mp-1037604,KMg30FeO32,2.6424000000000003,-6.2989372459375,-2.910652190582031
mp-1037605,CsMg30FeO32,2.029499999999999,-6.2210488640625,-2.836254311088362
mp-1037593,LiMg30FeO32,3.055,-6.36352539578125,-2.963091072552084
mp-1037599,KMg30FeO32,2.758499999999999,-6.29415258328125,-2.905867527925781
mp-1037628,NaMg30FeO32,2.6485000000000003,-6.33976357609375,-2.948191785490301
mp-1037618,RbMg30FeO32,2.5309,-6.2601044281250005,-2.874176179804688
mp-1037677,LiMg30FeO32,2.8286,-6.3682519084375,-2.967817585208333
mp-1037801,YMg30FeO32,0.0,-6.42877142234375,-2.9564594642187503
mp-1037799,Mg30TiFeO32,0.0,-6.44840626046875,-2.954431794270833
mp-1037800,YMg30FeO32,3.2631,-6.42870569109375,-2.95639373296875
mp-1037922,Mg30MnFeO32,2.6653000000000002,-6.46550800734375,-2.951744114967672
mp-1037923,Mg30MnFeO32,2.932200000000001,-6.46633243546875,-2.952568543092672
mp-1038045,CaMg30FeO32,3.262499999999999,-6.38526952265625,-2.98332462109375
mp-1038124,CaMg30FeO32,0.0,-6.3672488739062505,-2.96530397234375
mp-1099232,Mg6FeNiO8,0.0,-6.526683263750001,-2.550641637500001
mp-1099238,HfMg6FeO8,0.0,-6.888598756875,-2.65149135875
mp-1189473,FeSb(ClO)8,0.0,-3.290028652222222,0.43058539722222106
mp-1205888,NbFe(PbO3)2,0.297399999999999,-7.63842551,-2.069986868
mp-1208903,Sm2FeAs2O,0.0,-5.548187195,-0.18228727
mp-1208668,SrFeBi2O5,0.0,-6.494491102777778,-1.752010775555556
mp-1208878,Sm2FeP2O,0.0,-5.601080244999999,0.013270010952381001
mp-1211330,La2FeP2O,0.0,-5.722768083333332,-0.035944170714285004
mp-1209831,Nd2FeAs2O,0.0,-5.5371391716666665,-0.15471881416666602
mp-1209715,Pr2FeAs2O,0.0,-5.52530793,-0.133779563888889
mp-1211381,La2FeAs2O,0.0,-5.617023913333333,-0.17865033166666702
mp-1212352,Ho2FeAs2O,0.0,-5.507511303333335,-0.181913601666667
mp-1213887,Ce2FeAs2O,0.0,-6.072893238333333,-0.300872068333333
mp-1213918,Ce2FeP2O,0.0,-6.136325844999999,-0.115854344047617
mp-1209716,Pr2FeP2O,0.0,-5.561133118333333,0.07884557873016
mp-1218692,Sr2TiFeO6,0.0,-7.82435298625,-2.8805394425833333
mp-1218821,Sr2FeSnO6,0.0,-6.930371507000001,-2.3751499795
mp-1218818,Sr2FeSnO6,0.0,-6.939353657000001,-2.3841321295
mp-1218744,Sr2NbFeO6,1.1662,-8.059662470000001,-2.895267624000001
mp-1218833,Sr2FeCoO6,0.0,-6.940617861,-2.073011847
mp-1218834,Sr2FeCoO6,0.0,-6.941502428,-2.073896414
mp-1227945,BaFeO2F,0.4455,-7.021819460000001,-2.582065353
mp-1235437,LiFePbO3,0.3094,-6.205878476666666,-1.383299449722222
mp-1276442,Sr2FeCoO6,0.0,-6.9563739595000005,-2.0887679455
mp-2227190,MgFePbO3,0.0,-6.131885274999999,-1.3557150566666651
mp-2223664,LaMgFeO3,0.0,-6.790116658333333,-1.8100531008333332
mp-2225394,EuMgFeO3,0.0,-7.81829612,-1.9462150941666692
mp-775022,LiFeOF,0.0,-6.54399039,-2.233801025833333
mp-758941,Li2Fe(PO3)4,2.2976,-7.453427644473685,-2.54157011264411
mp-1078679,GdFeAsO,0.0,-9.708874615,-1.667817868124998
mp-1046652,Sr2FeSO3,0.0,-6.636263923571429,-2.230961070357143
mp-1022732,FeBiAsO,0.0,-5.8890025887499995,-0.39446782437500005
mp-1079887,TbFeAsO,0.0,-7.375769491250001,-1.694277398541667
mp-1079570,CeFeAsO,0.0,-7.18986398375,-1.183600329375
mp-1214726,Ba2FeBrO3,1.4511,-6.580182141428572,-2.4674963357142863
mp-20287,LaFeAsO,0.0,-7.511652286875,-1.755624323750001
mp-19293,Sr2FeO3F,1.0271,-6.964810022321428,-2.877293910892856
mp-20349,SmFeAsO,0.0,-7.36607090125,-1.664398180625001
mp-22491,PrFeAsO,0.0,-7.2061742625,-1.485280211041667
mp-22034,PrFePO,0.0,-7.499389212500001,-1.592157412827381
mp-23123,FeMoClO4,1.5746,-7.597226594285714,-1.746362022857142
mp-510668,LaFePO,0.0,-7.692979695,-1.7506139836607142
mp-505259,SmFePO,0.0,-7.52177570375,-1.633765234910714
mp-556507,Sr2FeBrO3,1.1631,-6.613424660357142,-2.565466526071428
mp-556603,FeWClO4,1.244,-7.970484744999999,-1.817837299285713
mp-630641,Sr2FeClO3,0.0,-6.729898679642857,-2.6517125075
mp-630511,Ca2FeClO3,0.5775,-6.779830104285714,-2.612166277857142
mp-622621,NdFeAsO,0.0,-7.32430317875,-1.6102401337499992
mp-753930,Li2VFeO5,2.0048,-7.305842862777778,-2.182334191851852
mp-761481,Li2FePO5,0.6223999999999991,-7.115384400277778,-2.399479345423279
mp-1173282,Sr2FeMoO6,0.728499999999999,-7.7712013885000015,-2.532372035500001
mp-1212730,FeAg(MoO4)2,1.4844,-7.73970231375,-1.690706718055555
mp-22076,NaFe(WO4)2,1.9174,-8.38277744875,-2.106803241364943
mp-755329,Li3Fe(OF)2,2.4911,-5.9790755340625,-2.4890234628125
mp-757676,Li4FeP2O9,0.044300000000000006,-6.900917150562501,-2.434147852288691
mp-777299,Li3FeOF3,3.7381,-5.75426533125,-2.64347683875
mp-754096,Li2TiFeO4,0.0,-7.5249907275,-2.528090355
mp-1277787,Ba2FeMoO6,0.8640999999999991,-7.784411908,-2.500273185
mp-1200872,CaTi2FeO6,1.3812,-8.719011236750001,-3.123574121416667
mp-1177837,Li2TiFeO4,0.9611000000000001,-7.525871518124999,-2.528971145624999
mp-2227157,Sr2MgFeO4,0.0,-6.3708681787499994,-2.211219250624999
mp-1022809,Ba4NbFeO8,2.7302,-7.606661243035714,-2.904453096607143
mp-1042824,CaFeAs2O7,2.085499999999999,-7.053804261363637,-2.103659425909091