Material_ID,Formula,Band_Gap,Energy_per_Atom,Formation_Energy_per_Atom
mp-2713449,Ca2Nb4Si3(SO6)6,1.6964000000000001,-7.692194807843137,-2.522604070686275
mp-2715222,Na3HfNb(SiO4)3,2.9723,-8.09146210275,-3.104704974956897
mp-2715237,Na3TiNb(SiO4)3,2.7821,-7.89370412425,-3.010031847123564
mp-2715264,Na3NbSi3GeO12,3.012299999999999,-7.491451777916667,-2.771402708873563
mp-2715268,Na3ZrTa(SiO4)3,3.790599999999999,-8.129546066916667,-3.12498223399023
mp-2715282,Na3TaSi3SnO12,3.714,-7.639602763000001,-2.861945368823563
mp-2715297,Na3HfTa(SiO4)3,3.8515,-8.24207754525,-3.167039292323563
mp-2715349,Na3ZrNb(SiO4)3,2.9646,-7.978677455125,-3.062394747331897
mp-2715287,Na3HfTa(SiO4)3,3.7876000000000003,-8.239990325416667,-3.16495207249023
mp-2715333,Na3NbSi3SnO12,2.936,-7.486547329666667,-2.797171060623564
mp-2715316,Na3NbSi3SnO12,2.923999999999999,-7.487285987375,-2.797909718331897
mp-2715378,Na3NbSi3GeO12,2.9431000000000003,-7.493442168875001,-2.773393099831897
mp-2715425,Na3TaSi3SnO12,3.7318,-7.639154840250001,-2.861497446073564
mp-2715439,Na3TaTi(SiO4)3,3.0473,-8.047290340124999,-3.075336937865229
mp-2715406,Na3TaSi3GeO12,3.4013,-7.645465020750001,-2.837134826573564
mp-2715410,Na3ZrNb(SiO4)3,2.8577,-7.975680874083334,-3.05939816629023
mp-2715481,Na3HfNb(SiO4)3,2.9662,-8.090813526125,-3.104056398331896
mp-2715475,Na3TaTi(SiO4)3,3.0383,-8.048316940916667,-3.076363538656898
mp-2715478,Na3TiNb(SiO4)3,2.806499999999999,-7.895028678666667,-3.011356401540231
mp-2715458,Na3TaSi3GeO12,3.4343,-7.646775477,-2.838445282823563
mp-2715494,Na3ZrTa(SiO4)3,3.7845,-8.12912140025,-3.124557567323563
mp-677613,Ba3Si3N5ClO,1.8329,-7.170870753461538,-1.746196499615385
mp-707746,CaAl2Si3H6O13,5.1156,-7.0485890486,-2.6299011555
mp-677233,NaAl3Tl2(SiO4)3,2.9247,-7.302274928690475,-2.874994992883142
mp-693857,NaLi2Al3(SiO4)3,2.9545,-7.458844601071428,-3.075616974787903
mp-1173755,Na4Al3Si3B(O3F)4,0.532,-6.937450926851852,-2.9896769259142193
mp-1221308,Na3CaAl3Si3SO16,4.575100000000001,-7.33151212074074,-3.003764733949552
mp-1223621,KAlSi3Ni3(HO6)2,0.0,-7.193628202272726,-2.436392992261362
mp-1223622,KAlCo3Si3(HO6)2,2.6524,-7.374229435454544,-2.432456038170453
mp-1223512,KMg3AlSi3(O5F)2,0.0,-7.291228856999998,-3.323647632612499
mp-1223564,KMg3AlSi3(HO6)2,0.0,-7.147875998636363,-2.956504424761362
mp-1223578,KMg2AlFe(SiO4)3,1.060199999999999,-7.53368092975,-2.9207112826125
mp-1223547,KMg3GaSi3(HO6)2,0.0,-6.9782455381818185,-2.819486682829546
mp-1223563,KMg3AlSi3O11F,0.006500000000000001,-7.2546365855,-3.1353499296125
mp-1252733,Na3CaAl3Si3SO16,4.1166,-7.360181032777778,-3.032433645986589
mp-1368522,Na3CaAl3Si3SO16,0.0,-3.069857291111111,1.257890095680076
mp-2712577,Na18Mg20Nb4Si3(S11O48)3,0.165,-6.687413664144145,-2.351765920843819
mp-2712834,Na3Zr2Ta2Si3(PO8)3,3.8162000000000003,-8.445685215225227,-3.144932310704501
mp-2712843,Na3Nb2Si3Ge2(PO8)3,2.7674000000000003,-7.740420306486487,-2.747250930488285
mp-2712823,Na9Ta8Zn4Si3(P5O24)3,2.8053,-7.930999575675676,-2.833601998024535
mp-2712842,Na3Ta3AlSi3(PO8)3,3.147799999999999,-8.322296668108109,-3.061622084866662
mp-2712863,Na3Ta3GaSi3(PO8)3,3.1069,-8.216222537207209,-2.974939300114411
mp-2712871,Na3Nb3InSi3(PO8)3,2.3436,-7.950510084504505,-2.8596535984162132
mp-2712906,Na3LaTa3Si3(PO8)3,2.9848,-8.37757050855856,-3.084722107073871
mp-2712882,Na3Ta2Si3Ge2(PO8)3,3.4389,-7.906059584234234,-2.8174511540378333
mp-2712921,Na3YNb3Si3(PO8)3,2.2787,-8.19554000981982,-3.003334395172968
mp-2712929,Na3LaNb3Si3(PO8)3,2.2383,-8.13510745891892,-2.985417638731528
mp-2712945,Na3ScTa3Si3(PO8)3,3.0753,-8.436716652252253,-3.106126034551348
mp-2712954,Na3Ta2Si3Sn2(PO8)3,3.507899999999999,-7.900491516936937,-2.84504287052432
mp-2712967,Na3YTa3Si3(PO8)3,3.0157,-8.436888945675676,-3.101524749731527
mp-2712959,Na3Nb3GaSi3(PO8)3,2.3784,-7.969500747747748,-2.871376091952248
mp-2712969,Na3Hf2Ta2Si3(PO8)3,3.7595,-8.561658354684685,-3.184716888001797
mp-2712971,Na3Nb3AlSi3(PO8)3,2.4141,-8.075073032432433,-2.9575570304882843
mp-2712996,Na3Nb2Si3Sn2(PO8)3,2.8802000000000003,-7.735100806036036,-2.775091213821617
mp-2712991,Na9Ca4Nb8Si3(P5O24)3,2.1134,-7.8808470133333355,-2.883823804523034
mp-2712999,Na3Ti2Nb2Si3(PO8)3,2.6679,-8.18400081828829,-3.013941487605401
mp-2713016,Na3Ta3InSi3(PO8)3,3.014799999999999,-8.195979102162163,-2.961964034776573
mp-2713007,Na3Hf2Nb2Si3(PO8)3,2.8493,-8.396105962252253,-3.114603549767564
mp-2713033,Na9Nb8Zn4Si3(P5O24)3,2.0689,-7.713521342432433,-2.743375837045555
mp-2713072,Na9Ca4Ta8Si3(P5O24)3,2.8829000000000002,-8.094648113513514,-2.9703728324389482
mp-2713109,Na9Mg4Nb8Si3(P5O24)3,2.1736,-7.84943422045045,-2.865929204973483
mp-2713089,Na3Ta2Ti2Si3(PO8)3,2.6811,-8.346321283243244,-3.080822898362158
mp-2713078,Na3ScNb3Si3(PO8)3,2.279099999999999,-8.189743285945946,-3.002311249542338
mp-2713098,Na3Zr2Nb2Si3(PO8)3,2.9288,-8.284176605045046,-3.078862754722519
mp-2713110,Na9Mg4Ta8Si3(P5O24)3,2.9492000000000003,-8.065107398468468,-2.954350310727237
mp-2713123,Na12Ta2Zn10Si3(S5O24)3,2.1247,-6.391350824561404,-2.119100995690513
mp-2713198,Na5In3Si3Sn(SO8)3,2.107599999999999,-6.532915833333333,-2.265280092548629
mp-2713219,Na4CaHf3Si3(SO8)3,2.987599999999999,-7.714622271578948,-2.854460508500454
mp-2713176,Na5La3HfSi3(SO8)3,3.5504,-7.426466241196582,-2.838878775796494
mp-2713143,Na5La3TiSi3(SO8)3,1.7610000000000001,-7.324460412991453,-2.789736973574271
mp-2713154,Na5In3Si3Ge(SO8)3,1.8462,-6.535004098461538,-2.251638716651193
mp-2713170,Na5HfIn3Si3(SO8)3,0.7071000000000001,-6.851996637863249,-2.431857892591365
mp-2713182,Na2Hf2Zr2Si3(SO8)3,3.2172,-8.126748964537038,-2.9285456925997773
mp-2713196,Na2Hf2Si3Sn2(SO8)3,2.0223,-7.552293750833335,-2.606208744173852
mp-2713204,Na2Hf2Si3Ge2(SO8)3,2.4177,-7.568674633611112,-2.58850873806274
mp-2713162,Na5Y3HfSi3(SO8)3,3.5455,-7.5574873636752145,-2.8488934063520492
mp-2713228,Na4CaTi3Si3(SO8)3,1.0988,-7.414177569824562,-2.716781360430279
mp-2713236,Na4Y2Zr2Si3(SO8)3,2.7178,-7.667061952807018,-2.853310261044314
mp-2713234,Na4Sc3TaSi3(SO8)3,3.1893000000000002,-7.659376682456141,-2.825868396017998
mp-2713272,Na4Zr2Ga2Si3(SO8)3,2.8243,-7.219083491842105,-2.5885420883688752
mp-2713278,Na4MgSi3Ge3(SO8)3,0.058300000000000005,-6.71202066140351,-2.282848724377647
mp-2713238,Na4La2Hf2Si3(SO8)3,3.5473,-7.655672382105263,-2.8505310058688753
mp-2713322,Na4Ti3ZnSi3(SO8)3,1.134399999999999,-7.293426549649123,-2.615658136833787
mp-2713348,Na5Ga3Si3Sn(SO8)3,2.519199999999998,-6.585990033247864,-2.297667963296493
mp-2713291,Na4CaZr3Si3(SO8)3,2.3886000000000003,-7.554805266666667,-2.8059189035881733
mp-2713299,Na18Nb4Zn20Si3(S11O48)3,0.7746000000000001,-6.350164693198199,-2.047915725123097
mp-2713318,Na4Al2Si3Ge2(SO8)3,1.0755,-6.895559074035088,-2.433817300430278
mp-2713326,Na4Hf3MgSi3(SO8)3,3.0499,-7.68059397508772,-2.830304050561857
mp-2713349,Na12Ca10Nb2Si3(S5O24)3,1.027,-6.799855510350878,-2.493155526263612
mp-2713301,Na18Ta4Zn20Si3(S11O48)3,1.593799999999999,-6.403057594054054,-2.068995607912887
mp-2713316,Na4Nb2Zn2Si3(SO8)3,0.43419999999999903,-7.012784130438597,-2.393545253412734
mp-2713321,Na4La2Si3Ge2(SO8)3,0.0,-6.9828752349122825,-2.458479183675893
mp-2713377,Na12Mg10Nb2Si3(S5O24)3,1.066599999999999,-6.662061638684211,-2.388267783105717
mp-2713355,Na12Mg10Ta2Si3(S5O24)3,1.757299999999999,-6.711527170614035,-2.406757481655425
mp-2713390,Na2La2Nb2Si3(SO8)3,0.9718,-7.704576396574075,-2.699016319914592
mp-2713370,Na2Ta2Ga2Si3(SO8)3,1.1188999999999991,-7.5313402982407425,-2.533685142683111
mp-2713413,Na2Ti2Si3Ge2(SO8)3,1.505799999999999,-7.356810585462963,-2.491183412877555
mp-2713410,Na2Y2Ta2Si3(SO8)3,1.3065,-7.976675368796297,-2.7856315755997763
mp-2713407,Na5ZrAl3Si3(SO8)3,3.2356,-7.132087780256411,-2.672212679599912
mp-2713411,Na5Y3TiSi3(SO8)3,1.652299999999999,-7.459599302820513,-2.8038693714802543
mp-2713417,Na2Nb2Al2Si3(SO8)3,0.583299999999999,-7.585306255092593,-2.645881249266444
mp-2713397,Na2Zr2Ti2Si3(SO8)3,1.2392,-7.9137756844444445,-2.830111135470147
mp-2713400,Na2Ti2Si3Sn2(SO8)3,1.4854,-7.344134983888889,-2.51258870019237
mp-2713396,Na12Nb2Zn10Si3(S5O24)3,1.4398,-6.341746013421053,-2.100472017930278
mp-2713412,Na2Zr2Si3Sn2(SO8)3,1.132099999999999,-7.437245370462964,-2.569465274914592
mp-2713432,Na5ZrSc3Si3(SO8)3,3.2624,-7.486020265641026,-2.827153374599913
mp-2713438,Na5La3ZrSi3(SO8)3,3.2276,-7.376380458974359,-2.824933721779399
mp-2713487,Na5Sc3TiSi3(SO8)3,1.8636,-7.440944004615384,-2.798800411352048
mp-2713461,Na5La3Si3Sn(SO8)3,1.8785,-7.113650193418803,-2.678565732505895
mp-2713489,Na5TiGa3Si3(SO8)3,1.9246999999999992,-6.809400538290599,-2.4214394898349543
mp-2713439,Na5Y3Si3Ge(SO8)3,2.1056,-7.248260423675213,-2.676439829813586
mp-2713443,Na2Sc2Ta2Si3(SO8)3,1.3672,-7.982469603888889,-2.801238165970147
mp-2713469,Na5ZrIn3Si3(SO8)3,0.8790999999999991,-6.799018502991453,-2.415020485924699
mp-2713501,Na2Y2Nb2Si3(SO8)3,0.748,-7.824722496851852,-2.731768842692369
mp-2713525,Na5Al3Si3Ge(SO8)3,2.5681000000000003,-6.88984074974359,-2.530598284343502
mp-2713516,Na5Sc3Si3Ge(SO8)3,2.2695,-7.2256609496581214,-2.6674266938734172
mp-2713502,Na2La2Ta2Si3(SO8)3,1.8535,-7.854979158611111,-2.751328942914591
mp-2713517,Na12Ca10Ta2Si3(S5O24)3,1.7088,-6.84603667245614,-2.508360854988758
mp-2713589,Na4MgTi3Si3(SO8)3,1.1112,-7.385654851491228,-2.698130480649577
mp-2713549,Na4Mg2Ta2Si3(SO8)3,1.0795,-7.346643670438596,-2.614965377219752
mp-2713586,Na18Ca20Nb4Si3(S11O48)3,0.5562,-6.832812387702703,-2.463369161069044
mp-2713553,Na4Zr2In2Si3(SO8)3,2.1131,-7.183183669473685,-2.566796070167122
mp-2713558,Na4Y2Hf2Si3(SO8)3,3.3567,-7.766994999649123,-2.879059707886419
mp-2713559,Na4Y3TaSi3(SO8)3,2.9676,-7.679837767105264,-2.832385607377647
mp-2713560,Na4Y2Ti2Si3(SO8)3,1.4906000000000001,-7.558680995877193,-2.779256073237296
mp-2713572,Na4Hf2Al2Si3(SO8)3,3.6961999999999993,-7.52143461885965,-2.77894752025484
mp-2713545,Na4TaAl3Si3(SO8)3,3.1533,-7.304333020263159,-2.675053150272384
mp-2713539,Na4CaSi3Ge3(SO8)3,0.0,-6.730074852280703,-2.291031076702209
mp-2713555,Na4TaGa3Si3(SO8)3,2.9892000000000003,-7.000533250263158,-2.427896522969753
mp-2713543,Na4In2Si3Ge2(SO8)3,0.9449000000000001,-6.631582370964913,-2.221756496658349
mp-2713576,Na4Zr2Al2Si3(SO8)3,3.0794,-7.406401476929824,-2.738097978325015
mp-2713582,Na4Ti2Al2Si3(SO8)3,1.4926,-7.333418037982457,-2.699441308500455
mp-2713564,Na4Mg2Nb2Si3(SO8)3,0.40650000000000003,-7.199409344912281,-2.560658551833786
mp-2713583,Na4Ca2Nb2Si3(SO8)3,0.33370000000000005,-7.24193715508772,-2.583442684903963
mp-2713631,Na4Zr2Sc2Si3(SO8)3,2.8649,-7.65590997754386,-2.851454201307472
mp-2713594,Na4Y2Si3Ge2(SO8)3,0.6833,-7.107057250701755,-2.499867283939052
mp-2713592,Na4La2Ti2Si3(SO8)3,1.3294000000000001,-7.4362335333333345,-2.739602526219753
mp-2713617,Na4TaIn3Si3(SO8)3,2.761199999999999,-6.937130387719298,-2.385724366675893
mp-2713604,Na4ZnSi3Sn3(SO8)3,0.262599999999999,-6.607034066754386,-2.236048824596946
mp-2713593,Na4Ga2Si3Sn2(SO8)3,1.218,-6.676667489824562,-2.2849749692460692
mp-2713596,Na4ZnSi3Ge3(SO8)3,0.029599999999999002,-6.619771455789475,-2.200355476789928
mp-2713610,Na4Hf2Ga2Si3(SO8)3,2.8263,-7.330622933070176,-2.6258979295969462
mp-2713597,Na4NbIn3Si3(SO8)3,2.0736,-6.8644512212280695,-2.35950895025484
mp-2713616,Na4La2Si3Sn2(SO8)3,0.0,-6.995561505701755,-2.5034526123601033
mp-2713636,Na18Mg20Ta4Si3(S11O48)3,1.053599999999999,-6.741217838288288,-2.373757076921896
mp-2713638,Na4Hf2Sc2Si3(SO8)3,3.1062,-7.763277794561404,-2.8846384183250153
mp-2713646,Na4Y2Si3Sn2(SO8)3,0.16989999999999902,-7.110273743157895,-2.535370934289928
mp-2713642,Na4La3TaSi3(SO8)3,3.1666,-7.537377281228071,-2.814115994789928
mp-2713647,Na4La2Zr2Si3(SO8)3,2.6012,-7.554067074736842,-2.8231092985004542
mp-2713649,Na4Sc2Si3Sn2(SO8)3,0.9502,-7.111471079035088,-2.545864185693436
mp-2713666,Na4Al2Si3Sn2(SO8)3,1.569799999999999,-6.873202632982457,-2.443748017272384
mp-2713651,Na4MgZr3Si3(SO8)3,2.5931,-7.5208865839473695,-2.781872059421506
mp-2713659,Na4Sc3NbSi3(SO8)3,2.215899999999999,-7.5866582944736844,-2.799613758105716
mp-2713652,Na4Zr3ZnSi3(SO8)3,2.4387,-7.4264286668421065,-2.69717010034256
mp-2713675,Na4CaSi3Sn3(SO8)3,0.0,-6.7213981475438604,-2.330785108807472
mp-2713669,Na4Hf3ZnSi3(SO8)3,2.9484,-7.590079190701755,-2.7495452242022083
mp-2713670,Na4MgSi3Sn3(SO8)3,0.1937,-6.698368812719299,-2.317627612535542
mp-2713672,Na4NbGa3Si3(SO8)3,2.4228,-6.9274363823684215,-2.401263405145191
mp-2713685,Na4Hf2In2Si3(SO8)3,2.591,-7.288779400701755,-2.598208201395191
mp-2713702,Na4Ta2Zn2Si3(SO8)3,1.1923,-7.163511956228071,-2.451345579061858
mp-2713696,Na4Ti2Ga2Si3(SO8)3,1.4536,-7.131835761666667,-2.535621127316244
mp-2713691,Na4Y3NbSi3(SO8)3,1.9043,-7.601770721754387,-2.800782312096946
mp-2713700,Na4La3NbSi3(SO8)3,1.9883000000000002,-7.461603134210527,-2.78480559784256
mp-2713697,Na4Ti2In2Si3(SO8)3,1.3376000000000001,-7.080227585964913,-2.498166755781155
mp-2713703,Na4Ca2Ta2Si3(SO8)3,1.0911,-7.386960992719299,-2.635539022395191
mp-2713705,Na18Ca20Ta4Si3(S11O48)3,1.3128,-6.884918992477478,-2.483662747777752
mp-2713706,Na4Ga2Si3Ge2(SO8)3,0.7994999999999991,-6.68863736885965,-2.26465769038642
mp-2713713,Na4NbAl3Si3(SO8)3,2.2729,-7.229192292017544,-2.646376172096945
mp-2713721,Na4Sc2Si3Ge2(SO8)3,0.748599999999999,-7.110024681929825,-2.512130630693436
mp-2713720,Na4Sc2Ti2Si3(SO8)3,1.6048,-7.563040309736842,-2.792911302623261
mp-2713738,NaNb3ZnSi3(SO8)3,1.073599999999999,-7.693118968761905,-2.540333928158457
mp-2713753,Na6La4Al4Si3(S3O16)3,3.9,-7.105312782837839,-2.594502311902377
mp-2713758,Na6Ca4Si3Sn4(S3O16)3,1.173299999999999,-6.68705568945946,-2.320375553659134
mp-2713759,Na6Zr4Zn4Si3(S3O16)3,2.5749,-6.972402523603604,-2.4007346848303053
mp-2713751,Na6Zn4Si3Sn4(S3O16)3,1.451099999999999,-6.411099557432433,-2.084735976767242
mp-2713769,Na6Zn4Si3Ge4(S3O16)3,1.261699999999999,-6.409002355630631,-2.049478991181656
mp-2713774,Na6Al4In4Si3(S3O16)3,0.382899999999999,-6.694700687657659,-2.301556884920395
mp-2713767,NaTi3NbSi3(SO8)3,1.747799999999999,-7.9608895969523825,-2.744558203206077
mp-2713772,Na6In4Ga4Si3(S3O16)3,1.372199999999999,-6.487663524009009,-2.133302413569043
mp-2713763,Na6La4Sc4Si3(S3O16)3,3.2071,-7.372835226036037,-2.722192686181657
mp-2713765,NaTaSi3Ge3(SO8)3,1.989399999999999,-7.323853496,-2.337572673177505
mp-2713805,Na2Hf2Ti2Si3(SO8)3,2.4391,-8.034847303796298,-2.872877843710889
mp-2713806,NaCaNb3Si3(SO8)3,0.9587999999999991,-7.831901757428572,-2.657806537682266
mp-2713781,Na6Sc4Ga4Si3(S3O16)3,3.0406,-6.9838482482882895,-2.436336037217692
mp-2713796,Na6Al4Ga4Si3(S3O16)3,2.6364,-6.729672171576578,-2.321992029424899
mp-2713803,Na2Nb2In2Si3(SO8)3,0.5724,-7.319516398148148,-2.434891508247926
mp-2713816,Na2Zr2Si3Ge2(SO8)3,1.0164,-7.43996491287037,-2.53810392843311
mp-2713813,NaZr3NbSi3(SO8)3,1.7636,-8.110318417809523,-2.838083428634648
mp-2713823,Na6Sc4In4Si3(S3O16)3,2.428499999999999,-6.946806504504505,-2.413830632848323
mp-2713825,NaTaTi3Si3(SO8)3,1.6471,-8.04528822457143,-2.778510473606075
mp-2713815,Na2Si3Sn2Ge2(SO8)3,0.7146,-6.8693240062962975,-2.219581287136814
mp-2713822,Na2Nb2Ga2Si3(SO8)3,0.7825000000000001,-7.37345618037037,-2.473891163849777
mp-2713833,Na6Mg4Si3Sn4(S3O16)3,1.242499999999999,-6.607104297162163,-2.260701451361837
mp-2713832,NaHf3TaSi3(SO8)3,2.3338,-8.366504425809524,-2.923009787987028
mp-2713834,Na6Sc4Al4Si3(S3O16)3,3.2618,-7.187945953108109,-2.601651049740215
mp-2713842,NaNbSi3Ge3(SO8)3,1.8353000000000002,-7.238778125142858,-2.30294365953941
mp-2713848,Na6Y4Ga4Si3(S3O16)3,2.6966,-6.9974276011711725,-2.440368233614088
mp-2713853,Na6La4In4Si3(S3O16)3,2.397599999999999,-6.8846474857657665,-2.427156046542016
mp-2713867,NaCaTa3Si3(SO8)3,1.4136,-8.07584342057143,-2.750409129167979
mp-2713860,Na6Hf4Mg4Si3(S3O16)3,3.099599999999999,-7.27718280418919,-2.6092871381185923
mp-2713855,Na6Mg4Si3Ge4(S3O16)3,0.9988999999999991,-6.607112816486487,-2.227550186902377
mp-2713854,Na6La4Y4Si3(S3O16)3,3.6229,-7.402009167117118,-2.7418194707762513
mp-2713886,Na6Ca4Ti4Si3(S3O16)3,1.2118,-7.152855355180181,-2.576125480911386
mp-2713895,Na6Y4In4Si3(S3O16)3,2.149,-6.967205612567568,-2.424682584424899
mp-2713894,NaMgNb3Si3(SO8)3,1.065299999999999,-7.793847576095239,-2.630470352491791
mp-2713905,Na2Sc2Nb2Si3(SO8)3,0.6163000000000001,-7.825245616574074,-2.74210431769237
mp-2713911,Na6Y4Sc4Si3(S3O16)3,3.1008,-7.464070356486487,-2.728396227713188
mp-2713901,Na6Hf4Zn4Si3(S3O16)3,3.0506,-7.080856322207208,-2.432999921271747
mp-2713965,NaMgTa3Si3(SO8)3,1.5814,-8.042547701619048,-2.7278314063584572
mp-2713926,Na6Ti4Zn4Si3(S3O16)3,1.4096,-6.8767619019819834,-2.340348582848323
mp-2713975,NaNbSi3Sn3(SO8)3,1.6004,-7.219000796476191,-2.335748273729885
mp-2713976,Na2Ta2Al2Si3(SO8)3,1.2679,-7.746137070277778,-2.708621925414592
mp-2713944,Na6La4Ga4Si3(S3O16)3,3.007,-6.9071013278828834,-2.435073549244719
mp-2713954,Na6Y4Al4Si3(S3O16)3,3.7756,-7.201141292522522,-2.605299232668143
mp-2713997,Na6Mg4Zr4Si3(S3O16)3,2.3022,-7.163899517477477,-2.5721924135690433
mp-2713995,Na6Ca4Hf4Si3(S3O16)3,3.241799999999999,-7.362753736171172,-2.674580780100575
mp-2714001,Na6Ca4Zr4Si3(S3O16)3,2.514599999999999,-7.255090952837838,-2.643106558929403
mp-2713992,Na6Ca4Si3Ge4(S3O16)3,1.3011,-6.681529521081082,-2.281689601496972
mp-2714020,NaTa3ZnSi3(SO8)3,1.610599999999999,-7.942307492285715,-2.638183380025123
mp-2714002,Na6Mg4Ti4Si3(S3O16)3,1.174099999999999,-7.073296922342343,-2.516844338073548
mp-2714016,NaHf3NbSi3(SO8)3,1.6162,-8.287719631333335,-2.894671350729886
mp-2714019,NaZr3TaSi3(SO8)3,2.5445,-8.19232285857143,-2.8696415121775063
mp-2714015,NaTaSi3Sn3(SO8)3,1.4913999999999992,-7.299722308380953,-2.366023428415599
mp-2714026,Na7Y3ZnSi3(SO8)3,3.4949,-6.995107277073171,-2.662883850906224
mp-2714034,Na7Ca3TaSi3(SO8)3,1.4685000000000001,-6.894497883658537,-2.633086431328988
mp-2714039,Na7Sc3ZnSi3(SO8)3,3.748,-6.979523938211383,-2.660224101922484
mp-2714066,Na5La2Nb2Si3(PO8)3,1.8062,-7.759303794273505,-2.937337974551072
mp-2714072,Na7Y3MgSi3(SO8)3,3.4751,-7.073317451544716,-2.732051917938745
mp-2714074,Na5Si3Sn2Ge2(PO8)3,2.7912,-7.027329933333333,-2.533810905149363
mp-2714056,Na5Ta2Al2Si3(PO8)3,3.2047,-7.822208056837607,-2.970745251080987
mp-2714081,Na6Ca16Nb8Si3(S11O48)3,0.28200000000000003,-7.109465274380953,-2.4128054286227423
mp-2714054,Na5Nb2Al2Si3(PO8)3,2.4279,-7.66942596957265,-2.908507907542525
mp-2714053,Na5Sc2Nb2Si3(PO8)3,2.2796,-7.889051746666667,-2.9954724910467982
mp-2714091,Na5Y2Ta2Si3(PO8)3,2.793199999999999,-8.029283324188034,-3.036101766123722
mp-2714099,Na7MgAl3Si3(SO8)3,3.869099999999999,-6.732734868780488,-2.593677798833053
mp-2714116,Na5Y2Nb2Si3(PO8)3,2.0857,-7.8814306732478645,-2.978793858910046
mp-2714104,Na7NbZn3Si3(SO8)3,0.8315999999999991,-6.478015945691057,-2.314243305865573
mp-2714097,Na7Ca3NbSi3(SO8)3,0.6636000000000001,-6.82561640495935,-2.607268916109475
mp-2714102,Na5Zr2Si3Ge2(PO8)3,2.839,-7.532376887350428,-2.806133306602355
mp-2714115,Na7MgIn3Si3(SO8)3,0.1034,-6.406715026422765,-2.339833718914354
mp-2714117,Na6Nb8Zn16Si3(S11O48)3,0.35860000000000003,-6.703551551714287,-2.063718850337029
mp-2714121,Na7ZnIn3Si3(SO8)3,2.6498,-6.324869034878049,-2.267029834808663
mp-2714139,Na5Zr2Ti2Si3(PO8)3,2.491,-7.96166603863248,-3.06760378292714
mp-2714140,Na5Nb2In2Si3(PO8)3,2.158,-7.424720943675214,-2.714387604038251
mp-2714186,Na5Sc2Ta2Si3(PO8)3,3.061699999999999,-8.040567153675214,-3.05644315432885
mp-2714191,Na7CaAl3Si3(SO8)3,3.562599999999999,-6.7474684818699195,-2.599261903020046
mp-2714165,Na7CaSc3Si3(SO8)3,3.7742,-7.089622724471545,-2.752131271841184
mp-2714190,Na7MgSc3Si3(SO8)3,3.8061,-7.059624341382114,-2.731282397654191
mp-2714185,Na7Al3ZnSi3(SO8)3,3.671099999999999,-6.648299216504066,-2.518284253995655
mp-2714181,Na7Mg3NbSi3(SO8)3,0.6248,-6.723399094471546,-2.5325001323289893
mp-2714203,Na6Ca16Ta8Si3(S11O48)3,0.6617000000000001,-7.216826757666666,-2.452905102283059
mp-2714208,Na6Mg16Ta8Si3(S11O48)3,0.4939,-7.101599155000001,-2.366258822664012
mp-2714206,Na7CaY3Si3(SO8)3,3.4553000000000003,-7.110315031300813,-2.759899988792403
mp-2714218,Na5Hf2Zr2Si3(PO8)3,4.3155,-8.167295737264958,-3.167505429593806