Material_ID,Formula,Band_Gap,Energy_per_Atom,Formation_Energy_per_Atom
mp-1638745,CaLaFeNiO6,0.35799999999999904,-7.4364974175,-2.348544327
mp-1638691,CaLaFeWO6,2.471,-8.5939165555,-2.7881641100000003
mp-1638820,LaZnFeMoO6,0.0,-7.816395464999999,-2.2964766585
mp-1642086,Li4FeTe(WO6)2,0.504599999999999,-7.293211460499999,-2.066170905999999
mp-1569036,Li4FeTe(WO6)2,1.546799999999999,-7.30172615325,-2.07468559875
mp-1643680,Li4FeTe(WO6)2,0.46799999999999903,-7.292388459,-2.0653479045
mp-1643984,Li4FeTe(WO6)2,1.1373,-7.299247139,-2.0722065845
mp-1646328,LaMgFeNiO6,0.0,-7.238189891,-2.187749787
mp-2217283,Ba2MgFeMoO6,1.5819,-7.3330497,-2.381062677727273
mp-2217693,MgMn2FeWO6,1.154099999999999,-8.420260987272728,-1.95931389007837
mp-2217753,MgZn2FeWO6,1.3728,-6.934869195454545,-1.910698767727272
mp-2216172,MgVFe(P2O7)2,1.8205,-7.8536564247619065,-2.609954259693878
mp-2217875,MgMn2FeWO6,1.246799999999999,-8.470935627272727,-2.00998853007837
mp-2218548,RbMgFe(SeO4)2,2.324799999999999,-6.071400510769231,-1.636282334399038
mp-2218799,NaMgFe(SeO4)2,0.16969999999999902,-6.013276369230768,-1.550374600082061
mp-2218440,KMgFe(SO4)2,0.027299999999999002,-6.434849511538461,-1.889290425173077
mp-2219214,CsMgFe(SO4)2,0.0,-6.398256028461538,-1.869880953819628
mp-2217930,MgMn2FeWO6,1.4482,-8.446940625454546,-1.9859935282601882
mp-2219036,CsMgFe(MoO4)2,1.6018,-7.595438323846154,-2.035172396511937
mp-2223110,MgCrFe(BiO3)2,1.9464000000000001,-7.011329446363636,-1.809386415
mp-2222831,MgCrFe(BiO3)2,1.5498,-6.962031607272727,-1.7600885759090912
mp-2230235,MgV4FeCoO12,0.27130000000000004,-8.007434008947367,-2.062956941315788
mp-2230955,MgV4FeNiO12,1.2284,-8.049460817894738,-2.176209015526317
mp-2231237,MgV4FeCoO12,1.5113999999999992,-8.167467593157895,-2.222990525526316
mp-2230341,MgV4FeNiO12,0.0,-7.968625882631579,-2.095374080263159
mp-25393,Li2FePO4F,4.1935,-6.9704687025,-2.591686828756613
mp-40573,FeCu2H21(O5F4)2,0.489699999999999,-5.141431539285715,-1.5043515675297612
mp-684837,CaLaVFeO6,0.1109,-8.288403798333333,-2.870073768833333
mp-694884,KFeH5(SO5)2,0.293,-5.726325322105263,-1.287717305710526
mp-694928,Ca3La5Mn7FeO24,0.0,-8.36518589125,-2.813885202762931
mp-694930,Na2FeSn(PO4)3,2.298899999999999,-7.2557303902631585,-2.477573166141431
mp-695021,Li3Ti3Fe(PO4)6,2.3884,-7.9793312005405435,-2.867786034806951
mp-695554,Mg7VFeMo15O56,2.0652,-8.047213610250001,-2.1879912938125
mp-705884,LiFePHO5,2.393399999999999,-7.118616015277777,-2.237572785747354
mp-706238,Na3Zr3Fe(PO4)6,2.4292,-8.08361118662162,-2.965173599918785
mp-726695,Li3Ti3Fe(PO4)6,0.0,-4.409822641081081,0.7017225246525091
mp-725491,Na3Ca18Fe(PO4)14,2.2236000000000002,-7.570131872282609,-3.206018535099324
mp-743603,Li3Ti3Fe(PO4)6,2.4446,-7.9664277348648636,-2.854882569131272
mp-730638,Na2FeSn(PO4)3,0.0,-4.254494530131579,0.5236626939901471
mp-731625,Na3Zr3Fe(PO4)6,0.0,-4.600464025810811,0.5179735608920251
mp-745203,Li9Mg12Fe(PO4)12,0.0,-6.244569680365855,-2.004279707996516
mp-744404,K2FeH4(SO5)2,0.0,-6.058732383947369,-1.7392715631315792
mp-752490,LiVFe(P2O7)2,1.718799999999999,-7.825190960952382,-2.568229136281179
mp-753494,Li4FeSb(WO6)2,2.0653,-7.44080083675,-2.164475514916667
mp-754685,Li4CrFe(WO6)2,0.7280999999999991,-7.662529246,-2.110001612666666
mp-755967,Li4Mn3Fe(BO3)4,3.0412,-7.867006499583333,-2.463470762241378
mp-755913,Li4FeSb(TeO6)2,1.7911000000000001,-6.176655057,-1.8818121688333331
mp-754562,Li4Mn3Fe(BO3)4,3.1149,-7.865154019999999,-2.461618282658045
mp-755710,Li2MnFe(BO3)2,3.238399999999999,-7.794239700416665,-2.419537049827584
mp-755203,Li4NbFe(WO6)2,2.2991,-7.948203367,-2.373262855166667
mp-755626,Li4Mn3Fe(BO3)4,3.1623,-7.865330841666666,-2.461795104324712
mp-754680,Li4Mn3Fe(BO3)4,3.157499999999999,-7.865093048333333,-2.461557310991379
mp-756064,Li4FeTe(WO6)2,0.0,-7.2844591365,-2.057418581999999
mp-756441,Li2FePCO7,2.0936,-7.2603000570833345,-2.129655640734126
mp-757500,Li4VFe(WO6)2,1.2610000000000001,-7.735424707,-2.211354143666666
mp-759428,Li2VFe(P2O7)2,1.8673000000000002,-7.733039180227274,-2.628260944556277
mp-759529,LiVFe(P2O7)2,1.509,-7.821907559761906,-2.564945735090703
mp-759761,LiVFe(P2O7)2,1.5817,-7.822532637380952,-2.5655708127097503
mp-759723,Li2Zr7Fe(PO4)12,0.0,-8.356256971428571,-3.0046915157483
mp-759801,LiVFe(P2O7)2,1.5942999999999992,-7.822634373333333,-2.565672548662131
mp-759820,LiVFe(P2O7)2,1.6157,-7.822565773968254,-2.565603949297052
mp-759903,LiVFe(P2O7)2,1.637,-7.822723051904763,-2.56576122723356
mp-761819,Li4VFe(TeO6)2,1.370299999999999,-6.4813477715,-1.938759641833333
mp-764299,Li2VFe(P2O7)2,1.8187000000000002,-7.733600082575758,-2.628821846904762
mp-764318,Li2VFe(P2O7)2,1.7389000000000001,-7.733087282575758,-2.628309046904762
mp-765981,LiVFe(P2O7)2,1.644699999999999,-7.825080516904762,-2.56811869223356
mp-766569,Li4FeNi5(PO4)6,0.0,-7.1342968715,-2.228039337779761
mp-766818,Li3FePCO7,3.5301,-7.214280907307692,-2.3314612255494502
mp-766788,Li3FePCO7,3.021899999999999,-7.212188281923076,-2.329368600164834
mp-768485,Li2FePCO7,2.1632,-7.419993911041666,-2.289349494692459
mp-768508,Li2FePCO7,2.1108000000000002,-7.420621839791667,-2.28997742344246
mp-768077,Na2FePCO7,2.4391,-7.276565414375,-2.240454679366789
mp-768081,Na2FePCO7,2.4455,-7.2757714729166665,-2.239660737908456
mp-768648,Li2FePCO7,2.461,-7.413697191666666,-2.283052775317459
mp-768562,LiFePCO7,0.0,-7.490571847045455,-2.06704365345238
mp-768629,LiFePCO7,0.0,-7.490484731363637,-2.066956537770562
mp-768624,Li2FePCO7,2.441,-7.415776469791666,-2.285132053442459
mp-768630,LiFePCO7,0.0,-7.48878239,-2.065254196406925
mp-768625,Li6FeCo3(PO4)6,0.8137999999999991,-7.117694031000001,-2.303501184946429
mp-769515,Na2FePCO7,2.4179999999999993,-7.275077694791665,-2.238966959783456
mp-770489,Li6Cr3Fe(PO4)6,2.3775999999999993,-7.588614394749999,-2.585449242446429
mp-773105,Li2Zr7Fe(PO4)12,0.0,-8.35483547042857,-3.003270014748298
mp-774189,Li8Mn7Fe(BO3)8,3.1088,-7.902802089791667,-2.484849809073276
mp-774377,Li4Mn3Fe(BO3)4,3.180799999999999,-7.866881428541666,-2.463345691199711
mp-774705,Na2FePCO7,2.3822,-7.271488504375,-2.23537776936679
mp-775176,Li4FeTe2WO12,0.0,-6.650646933999999,-1.9143475963333332
mp-774933,Li4NbFe(TeO6)2,1.8764,-6.680849277999999,-2.087391199833332
mp-774717,Na2FePCO7,2.4097,-7.275440579583333,-2.239329844575123
mp-775268,Li8Mn7Fe(BO3)8,2.9599,-7.90305525125,-2.4851029705316092
mp-776005,Li4FeBi(TeO6)2,1.0224,-6.048633572,-1.7657390303333331
mp-776660,Li4Mn5Fe(PO4)6,0.321099999999999,-7.82044293375,-2.491450573521141
mp-776668,Li8Mn7Fe(PO4)12,0.0,-7.597928568421052,-2.461569071946029
mp-777357,Li8Mn7Fe(BO3)8,3.0515,-7.9021268210416675,-2.4841745403232762
mp-777758,Li2MnFe(BO3)2,3.2898,-7.792610542916667,-2.417907892327586
mp-777570,Li2MnFe(BO3)2,3.1548,-7.79370782125,-2.419005170660919
mp-777727,Li8Mn7Fe(BO3)8,3.1498,-7.902800894999999,-2.484848614281608
mp-777746,Li4Mn3Fe(BO3)4,3.0094,-7.86663497875,-2.4630992414080453
mp-777649,Li8Mn7Fe(BO3)8,3.1711,-7.902083294791667,-2.484131014073276
mp-777729,Li8Mn7Fe(BO3)8,2.965199999999999,-7.902930532708333,-2.484978251989942
mp-777511,Li2MnFe(BO3)2,3.0794,-7.792827829791666,-2.418125179202585
mp-777795,Li8Mn7Fe(BO3)8,2.886699999999999,-7.902133435833334,-2.484181155114942
mp-777852,Li4Mn3Fe(BO3)4,3.199499999999999,-7.8665759402083335,-2.4630402028663783
mp-777856,Li2MnFe(BO3)2,3.0499,-7.793544821041666,-2.418842170452585
mp-777788,Li8Mn7Fe(BO3)8,3.1117,-7.90293923875,-2.484986958031609
mp-777768,Li8Mn7Fe(BO3)8,3.0835,-7.902127425208333,-2.4841751444899423
mp-777792,Li8Mn7Fe(BO3)8,3.1538,-7.902784599166668,-2.484832318448276
mp-778135,Li8Mn7Fe(BO3)8,3.0595,-7.902032664791666,-2.484080384073275
mp-777998,Li4Mn3Fe(BO3)4,3.1571,-7.865183114583332,-2.461647377241378
mp-778007,Li4Mn3Fe(BO3)4,3.024,-7.866862024166667,-2.463326286824712
mp-778205,Li8Mn7Fe(BO3)8,3.041,-7.901622662083334,-2.4836703813649432
mp-778297,Li8Mn7Fe(BO3)8,2.981099999999999,-7.902997416458334,-2.4850451357399432
mp-778265,Li4Mn3Fe(BO3)4,3.1153,-7.865297517083333,-2.461761779741378
mp-778272,Li8Mn7Fe(BO3)8,3.0288,-7.902066822916667,-2.484114542198276
mp-778382,Li4Mn3Fe(BO3)4,2.9976000000000003,-7.865877434375,-2.462341697033045
mp-778495,Li8Mn7Fe(BO3)8,3.1059,-7.902886743333333,-2.484934462614942
mp-778721,Li8Mn7Fe(BO3)8,3.1073,-7.902853811666667,-2.4849015309482763
mp-779066,Li4Mn3Fe(BO3)4,3.1184,-7.8664581970833325,-2.462922459741378
mp-779074,Li8Mn7Fe(BO3)8,3.0369,-7.901729776250001,-2.48377749553161
mp-779262,LiFePCO7,0.0,-7.490057989090909,-2.066529795497835
mp-779778,LiFePCO7,0.0,-7.489362243333333,-2.065834049740259
mp-778866,Li4Mn3Fe(BO3)4,2.997,-7.866860366249999,-2.463324628908045
mp-779520,Li8Mn7Fe(BO3)8,2.9008000000000003,-7.902057942708333,-2.484105661989942
mp-778872,Li6Mn5Fe(BO3)6,2.6092,-7.895311317916667,-2.482164551657087
mp-780298,Li8Mn7Fe(BO3)8,2.9777,-7.902964446458334,-2.485012165739943
mp-779789,Li4Mn3Fe(BO3)4,3.093899999999999,-7.864983286875,-2.461447549533046
mp-801254,LiVFe(P2O7)2,0.0,-4.141831946785714,1.115129877885487
mp-781603,Li4Mn3Fe(BO3)4,3.0331,-7.866727640416666,-2.463191903074712
mp-850226,Li8Mn7Fe(BO3)8,3.0314,-7.9019133475,-2.483961066781609
mp-850958,Li4Mn3Fe(BO3)4,3.105,-7.865209657083333,-2.461673919741378
mp-861530,Li2Cr2FeSbO8,1.9134000000000002,-7.563976155892857,-2.18492964422619
mp-850955,LiFeP3(H7O8)2,3.932699999999999,-6.147018837857143,-1.766302527136054
mp-938392,Ca3La5Mn7FeO24,0.0,-7.003233018,-1.451932329512931
mp-1218669,Sr6Y3Fe(Cu4O11)2,0.0,-6.725052733999999,-2.230036240999999
mp-1218844,Sr2FeCu(PbO3)2,0.4222,-6.408556490833334,-1.9862944716666662
mp-1223530,KSr2Nb4FeO15,0.0,-8.31677675,-2.768477517489131
mp-1218840,Sr2FeBiPbO6,0.0,-6.57447085,-2.10671405
mp-1218403,Sr3FeCo(ClO2)2,0.6061000000000001,-6.4172805390909105,-2.4018587627272723
mp-1235806,Sr2LiFeO3F,0.0,-6.114974327500001,-2.299782371666667
mp-1218341,Sr3CaMn2FeO10,0.0,-7.376312024117647,-2.472985789168357
mp-1218360,Sr3CaMn2FeO10,0.0,-7.391759866470588,-2.488433631521298
mp-556016,FeCuC5N6O,0.0,-7.65565354,0.46507380410714205
mp-1176399,Na2FePCO7,2.373199999999999,-7.289580435833333,-2.253469700825122
mp-1177952,Li2FeBAsO7,0.2979,-6.8818211229166675,-2.025728766111111
mp-1190551,Na2FeSO4F3,2.052699999999999,-6.09594186840909,-2.384557915705328
mp-1192577,FeBi2Se2Cl3O7,1.3914,-5.707842743666666,-1.4796260903125
mp-1192499,Ba2V2FeHO9,2.2895,-7.792261967333333,-2.565422053083333
mp-1196102,FeGe3H4PbO10,2.915999999999999,-6.438966599736842,-1.7488598813157892
mp-1199768,ErFeC6(N3O2)2,1.7405,-7.495048157777778,0.18446536805555303
mp-1203139,FeCuH4S2O13,0.0,-5.883082663333333,-1.180696671190476
mp-1210860,LiFeWClO4,3.167599999999999,-7.6365102875,-2.014328414166666
mp-1579553,Li2FeCSO7,4.353099999999999,-7.051935950208333,-2.027717697013889
mp-1211835,KCr2FeHO8,1.2042,-7.02614374423077,-1.496425255653846
mp-22135,Na3FePCO7,1.8038,-7.027903419230768,-2.275976527021598
mp-25445,Li3FePCO7,4.3732,-7.225562600192308,-2.342742918434066
mp-25457,Li2FePCO7,2.4748,-7.415371804375,-2.284727388025793
mp-561410,LiFeMoClO4,3.0476,-7.314871580625,-1.956749722291666
mp-754635,Li2MnFe(PO4)2,3.983799999999999,-7.6887492107142865,-2.555569401705958
mp-755476,K3FePCO7,3.9412000000000003,-6.9875822634615385,-2.284197922607142
mp-756330,Na2FeBAsO7,0.6697000000000001,-6.753704274166666,-1.992145598702106
mp-756268,Li2FeNi(PO4)2,3.0324,-7.311723522142858,-2.420106471139456
mp-756481,Na2FeBPO7,0.5201,-7.137678907916666,-2.314007649714012
mp-756192,Li2ZnFe(PO4)2,3.6034,-7.057643896607142,-2.488912064889455
mp-756319,Li3FeBPO7,2.3438,-7.021752643461538,-2.33503094029304
mp-756274,Na3FeBPO7,2.1181,-6.972087706153847,-2.416258792534419
mp-764405,KFeH2S2O9,1.4988000000000001,-6.45430567,-1.8409662039833332
mp-758722,Li2FeCu(PO4)2,0.0,-7.093034740714286,-2.3214841189965982
mp-770939,Li3FeAsCO7,2.7162,-6.8617149038461545,-2.036229913846153
mp-771011,Li2FeCSO7,4.190300000000001,-7.051552724583334,-2.027334471388889
mp-771027,Li2FeAsCO7,2.2223,-7.021457926458333,-1.952926092847222
mp-771029,Li3FeBAsO7,2.2191,-6.808366188461538,-2.178979177051281
mp-771138,Na2FeCSO7,3.6176999999999992,-6.925837578333333,-1.996153006479884
mp-771144,Na3FeAsCO7,1.7516,-6.672061262307645,-1.9774690618567161
mp-771393,Na3FeBAsO7,2.0654,-6.613837086923076,-2.115342865061891
mp-772178,Li2FeSn(PO4)2,3.238799999999999,-7.177312435892857,-2.412164300960884
mp-772415,Na2FeAsCO7,2.1663,-6.905431334375,-1.9314331821048851
mp-777716,Li2FeBPO7,0.2376,-6.990451082083333,-2.072246142539682
mp-773453,K2FePCO7,1.1862,-7.251772156249999,-2.2507199305535712
mp-774247,Na3FeBSO7,2.9324000000000003,-6.6058367442307695,-2.148247365831122
mp-779101,LiFePCO7,0.0,-7.49188483090909,-2.068356637316016
mp-861527,Li2CrFe(PO4)2,2.2877,-7.678734157500001,-2.5104806214966002
mp-861602,Li2VFe(PO4)2,2.559199999999999,-7.685105487499999,-2.557504908639456
mp-1223053,La4FeAs4Ru3O4,0.0,-7.8809340203125,-1.9740845578125001
mp-1219902,Pr4FeAs4Ru3O4,0.0,-7.718998993125,-1.847283442291666
mp-1272613,SrLaVFeO6,0.0,-8.2324501325,-2.845437282
mp-1219984,Pr2FeAs2RuO2,0.0,-7.52728418,-1.705842462291667
mp-1223024,La4FeAs4Ru3O4,0.0,-7.878118625,-1.9712691625
mp-1223264,La2FeAs2RuO2,0.0,-7.6681894687500005,-1.811613839375001
mp-1519350,CaLaFeBiO6,0.0,-7.139758885000001,-2.240816031500001
mp-1276866,SrLaFeCoO6,0.0,-7.5784574235000015,-2.386493508000001
mp-1173157,SrLaVFeO6,0.0,-8.22738367,-2.8403708195000013
mp-1181538,FeMo6C8(NO10)2,0.0,-7.711092868918919,-0.602740939189189
mp-1211729,KCr2Fe(HO4)2,0.42410000000000003,-6.5699872485714295,-1.19273676355357
mp-1228213,Ba4Y2FeCu5O14,0.0,-6.7981344453846155,-2.223842468846153
mp-1227480,Ca2Nd2Nb3FeO14,2.3154999999999992,-8.749934882272727,-3.222985562954544
mp-772076,Sr4Li4Nb5FeO20,1.344999999999999,-8.04917532,-2.9803173689215683
mp-1213707,Cs3Li2Fe(MoO4)4,2.9686,-7.425851643653846,-2.135014098485853
mp-1195117,LiFeP2(HO3)2,2.7734,-6.8496651150000005,-2.042332612093254
mp-19466,FeSb2C6(OF2)6,4.6192,-6.395889536481481,-1.775370604074074
mp-1105354,Ca2FeCuSO3,0.675999999999999,-6.56267874875,-2.117344970937499
mp-1106248,Sr2VFeAsO3,0.0,-7.085920944375,-2.0293223184375
mp-1105960,Sr2ScFeAsO3,0.0,-7.183299283125,-2.4706302778125
mp-1198376,Cs5V5FeCl6O13,0.0,-6.5781692935,-2.116697545609196
mp-1189319,Sr2CrFeAsO3,0.0,-7.099137860625,-1.9713965596875
mp-505312,Sr2FeCuSO3,0.0,-6.484424338125,-2.1173835078125
mp-1189114,Sr2ScFePO3,0.0,-7.28285327375,-2.477015394330356
mp-862301,Ba2ScFeAsO3,0.0,-7.2120317434375,-2.442726025624999
mp-40206,Ca2Nd2Nb3FeO14,2.3551,-8.753848684545455,-3.226899365227272
mp-684865,SrLaMnFeO6,0.0,-8.055888116750001,-2.661064344043104
mp-1181488,FePH6(NO2)2,2.6803,-6.353768961249999,-1.301990898545917
mp-1182417,FePH5CO8,2.4753,-6.221339303437499,-1.241734274587052
mp-1182614,FePH5CO8,1.7522000000000002,-6.277222573593749,-1.297617544743302
mp-1182735,FePH5CO8,3.7239,-6.683519520468749,-1.7039144916183022
mp-1182816,FeH10S2NO11,2.1129000000000002,-5.7910753919,-1.252505250599999
mp-1194524,KFeCo(PO4)2,2.1638,-7.522294400961538,-2.356952651464286
mp-1194865,KMgFe(PO4)2,2.4804,-7.40659971326923,-2.6645615564642853
mp-1194949,KFeNi(PO4)2,2.4626,-7.411332062115385,-2.350088777233516
mp-1195527,Na2FeH4(SO5)2,1.8480999999999992,-6.150148951315789,-1.808545914092559
mp-1196381,Na2FeH7(SO6)2,2.306,-5.9707498780208335,-1.6969215849586932
mp-1196027,Na2FeH8(SO6)2,4.2919,-5.9186021138000005,-1.6799202949103451
mp-1197774,RbFeCu(PO4)2,0.0,-7.203366101730769,-2.283027867637362
mp-1198334,Tl2FeH12(SO7)2,3.9101,-5.728632312580645,-1.4865956702150531
mp-1198856,Rb2FeH12(SO7)2,4.0478,-5.773520351290323,-1.621221647258064
mp-1199438,NaFeP2(O3F)2,1.8637000000000001,-7.122081675416667,-2.608901690472086
mp-1199970,KFeCu(PO4)2,0.6213000000000001,-7.215966541153846,-2.284025564733515
mp-1200689,KFeP4(HO3)4,0.039199999999999006,-6.336110244772727,-1.598861024355519
mp-1204738,FeAs2S4(O2F3)4,3.2335,-5.589942696111111,-2.000549322592592
mp-1205475,FeH10S2NO11,2.4313000000000002,-5.9520792574,-1.4135091161
mp-1212760,FeBP2NO9,0.0,-7.319901118571429,-1.68773777417517
mp-1212653,K3FeH3(CO2)6,0.0,-6.5899370434,-1.118050855020001
mp-1213436,FeH12C4(N9O2)2,3.65,-6.993005873205129,-0.42871038923076904
mp-1213612,FeH18C6N6O13,3.3079,-6.5258544050000005,-1.087032368693183
mp-1214449,BaFeP(O2F)2,2.2199,-7.349417565277777,-2.9689710713492063
mp-1221277,Na2ZnFe(PO4)2,3.4799,-6.905033531428571,-2.417330569431737
mp-1237189,FePH5CO8,2.5269999999999992,-6.687614909375,-1.708009880524553
mp-19590,FeSb4C6(O3F11)2,4.5119,-5.934721017564103,-2.033425186666667
mp-24220,Cs2FeH12(SO7)2,4.1905,-5.770526241612903,-1.622908602235817
mp-510473,FeH9C3N7O2,3.1653000000000002,-6.483528514886364,-0.348238430284091
mp-510730,K2FeH12(SO7)2,1.122599999999999,-5.783686855806452,-1.6216568194999992
mp-540715,FeH20S2(NO7)2,4.006,-5.670728629615384,-1.296418919871794
mp-542146,K2FeH8(SO6)2,4.4501,-5.926057143,-1.7042034085800002
mp-557850,SrFeP(O2F)2,0.0,-7.311123105555556,-2.955848483849205
mp-631397,FeBN3O3F4,1.989399999999999,-6.572863854166667,-1.350902293263889
mp-656859,FePH5CO8,1.198799999999999,-6.140465732968749,-1.160860704118302
mp-655003,FePH5CO8,0.4249,-6.07516501046875,-1.095559981618302
mp-694934,Li2TiFe(PO4)3,2.4993,-7.798277511052631,-2.755892690206766
mp-696031,Zn2FeP2(H2O3)4,3.2874,-6.1599969704,-1.825704208371428
mp-706279,Li2ZrFe(PO4)3,2.0169,-7.706979883026316,-2.630268293057645
mp-746791,FeH10S2NO11,0.0639,-5.403413697299999,-0.8648435559999991
mp-759229,Li2FePO4F,3.9282,-6.979122720833334,-2.600340847089947
mp-759228,Li2FeP4(H4O5)4,4.0948,-6.215608934534884,-1.861384651633443
mp-766474,Sr2FeCO3F5,1.8412000000000002,-6.885771037291666,-3.094380389583333
mp-766699,Li3FePCO7,0.8005,-7.202430336730769,-2.319610654972527
mp-766696,Li3FePCO7,1.9357000000000002,-7.202970649615384,-2.320150967857142
mp-766624,Li3FePCO7,2.3987,-7.204485325384615,-2.321665643626374
mp-766685,Li3FePCO7,0.8380000000000001,-7.203704621923077,-2.3208849401648353
mp-767960,Na2FePCO7,1.5402,-7.273343071458334,-2.237232336450123
mp-768053,Na2FePCO7,1.6235,-7.277007479375,-2.240896744366789
mp-768108,Na2FePCO7,1.8987,-7.274197748541667,-2.238087013533456
mp-768645,Li2FePCO7,1.7876,-7.41700640375,-2.286361987400793
mp-768094,Na2FePCO7,1.6541000000000001,-7.275444439791666,-2.239333704783456
mp-768644,Li2FePCO7,1.9564999999999992,-7.410383947291667,-2.27973953094246
mp-768042,Na2FePCO7,1.6203,-7.274306560833334,-2.238195825825123
mp-768640,Li2FePCO7,2.457099999999999,-7.410325096249999,-2.279680679900793
mp-768646,Li2FePCO7,2.0675,-7.411785529583334,-2.281141113234127
mp-770572,Li2FeH12(SO7)2,4.1187,-5.777922906451613,-1.5657281511827952
mp-768707,Li2FePCO7,2.1628,-7.410062899791666,-2.279418483442459
mp-778185,Li2FeH8(SO6)2,3.809899999999999,-5.941875824,-1.657817838066666
mp-780200,LiFePH2O5,3.6933,-6.7765525225,-2.04409697204762
mp-781053,LiFeP3(HO5)2,3.725,-7.143090957205882,-2.266896393662465
mp-781672,LiFeH8(SO6)2,2.3339,-5.974042826874999,-1.591020877638888
mp-820860,Mn2FeC6(N3O4)2,0.38159999999999905,-7.280345207608695,0.188324325397302
mp-851030,Li2FePHO5,3.5215,-6.836598689500001,-2.252767496255953
mp-943462,LiFeHSO5,4.088,-6.654069896666668,-1.9149282180092602
mp-2218804,RbMgFe(MoO4)2,0.7483000000000001,-7.539516684615385,-1.973669487884615
mp-2218733,RbMgFe(MoO4)2,0.5868,-7.465365694615385,-1.899518497884615
mp-2218960,CsMgFe(SO4)2,0.8174999999999991,-6.457802404615384,-1.929427329973473
mp-1101188,V3FeNi2(PO4)6,0.0,-7.961300661388888,-2.4466918266071422
mp-1217783,SrTiFeBiO6,2.4347,-7.761128404750001,-2.597554239083334
mp-1176482,Mn3Cr2Fe(PO4)6,0.0,-8.130489457777777,-2.394209810601394
mp-1177019,Li7FeNi3(PO4)6,0.028299999999999003,-6.984411559756099,-2.340099447833915
mp-1218209,SrMnFeBiO6,1.188,-7.348693431000001,-2.058466937793105
mp-684724,FeH4S2NO8,2.3185000000000002,-6.3867645290625,-1.4961787862499991
mp-756802,Mn3FeNi2(PO4)6,0.0,-7.784858660277777,-2.26374072365695
mp-757725,V3FeSb2(PO4)6,0.0,-7.87398408361111,-2.45110499549603
mp-758183,Ti3V2Fe(PO4)6,0.7339000000000001,-8.432797495277777,-2.833680421051587