Material_ID,Formula,Band_Gap,Energy_per_Atom,Formation_Energy_per_Atom
mp-2715175,Na14Sc6Ta2Si9(SO16)3,2.6999,-7.549403193333334,-2.924307707619639
mp-2715179,Na14Mg4Ta4Si9(SO16)3,1.984999999999999,-7.296539119796748,-2.765822652188744
mp-2715181,Na14Ga4Si9Sn4(SO16)3,2.517999999999999,-6.67353872796748,-2.457931025245655
mp-2715194,Na14Ga4Si9Ge4(SO16)3,2.4454000000000002,-6.685611299634147,-2.4400789139854933
mp-2715195,Na14Al4Si9Ge4(SO16)3,2.6234,-6.873034488252033,-2.592503087603379
mp-2715199,Na14In4Si9Ge4(SO16)3,2.4142,-6.6443945902032535,-2.411980364513947
mp-2715197,Na24Ca10Ta2Si9(SO8)9,2.500999999999999,-6.755180551666667,-2.641550049208493
mp-2715203,Na14Ta2In6Si9(SO16)3,0.225,-6.899576937520326,-2.5359420880261423
mp-2715213,Na14La4Hf4Si9(SO16)3,3.7413,-7.5770675160569105,-2.978263312969232
mp-2716141,Na18Ca8Ta4Si9(SO8)9,1.2493,-7.042785509916667,-2.6262040602221752
mp-2716209,Na18Nb4Zn8Si9(SO8)9,0.54,-6.635420033333333,-2.327416418394397
mp-2716184,Na18Mg8Nb4Si9(SO8)9,0.3054,-6.861891855916667,-2.529173147311064
mp-2716254,Na18Ta4Zn8Si9(SO8)9,1.121299999999999,-6.727388707916668,-2.360531009555508
mp-2716275,Na18Ca8Nb4Si9(SO8)9,0.5322,-6.952610805333334,-2.5948834390610642
mp-2716214,Na18Mg8Ta4Si9(SO8)9,1.0701,-6.9563372927500025,-2.564764500722175
mp-2716283,Na15Ca7Nb5Si9(SO8)9,1.2811,-7.114431582649573,-2.6101766529332453
mp-2716495,Na15Nb5Zn7Si9(SO8)9,1.158299999999999,-6.828110643675214,-2.368479593360596
mp-2716569,Na15Mg7Ta5Si9(SO8)9,1.8711000000000002,-7.162414594102564,-2.6051493784175763
mp-2716506,Na9Mg5Ta7Si9(SO8)9,2.1566,-7.573513127927928,-2.657994023254478
mp-684810,BaSm5Al3Si9N20O,2.765799999999999,-8.159129478461537,-1.561949702051281
mp-1204100,Na2Ca2Al6Si9(H8O19)2,4.5947,-7.02714203239726,-2.6389072409282
mp-1204300,Na2Ca2Al6Si9(H8O19)2,4.8355,-7.034948708287671,-2.646713916818611
mp-1214670,Ca4Be2Al2Si9(HO14)2,4.933,-7.854977048723404,-3.234690236010637
mp-1221913,Na3Mg2Mn4Be6Si9(SnO13)3,0.0712,-7.465875831590909,-2.614395562588819
mp-680306,Rb14Si10O17,1.4904,-5.897217369207317,-2.187558969207317
mp-561189,Rb6Si10O23,4.0436,-7.461210033589737,-3.001223165641019
mp-27376,Rb6Si10O23,4.468400000000001,-7.478534243333325,-3.018547375384607
mp-555837,Rb6Si10O23,4.2191,-7.472566586153839,-3.012579718205121
mp-1176384,Na3Fe5(SiO3)10,0.0,-7.8365420134375015,-2.647640371023707
mp-1234735,MgMn8(SiO3)10,0.408599999999999,-8.467755465918367,-2.802069694458128
mp-686541,Al2Cd(Si5O12)2,2.3959,-8.04543394162162,-3.141233772162162
mp-1182805,Ca13Si10(O17F5)2,0.058100000000000006,-7.07929356761194,-3.083843169701492
mp-863437,Li9V5(Si5O16)2,1.764199999999999,-7.741607176964285,-2.827539880357142
mp-1218540,SrCa4Al10(SiO5)10,0.0,-7.2846596256666665,-2.633702072866667
mp-1227749,Ca4MnFe3(SiO3)10,0.0,-8.083367175208332,-2.9732319899568953
mp-1228000,Ca2Mn7Si10H12O35,2.7286,-7.590117636363637,-2.49437340084117
mp-1228049,BaCa3Si10(N2O)6,3.2698,-8.0308723553125,-2.0328706725
mp-1251571,Rb11Al14Si10(AgO16)3,0.0007999999999990001,-7.071592864883721,-2.8447549812500013
mp-677195,Nd10Si10BrN17O9,3.112199999999999,-8.401899301702127,-2.23479351723404
mp-677692,Na20Zr11Si10(PO9)8,2.9772,-7.794357176280992,-3.044858966650653
mp-686458,Rb11Al14Si10(AgO16)3,0.10690000000000001,-7.044755322325582,-2.817917438691861
mp-686617,Nd10Si10N17ClO9,3.1041,-8.414766182872341,-2.243158480851064
mp-694972,Ce10Si10BrN17O9,0.0,-8.59866288606383,-2.182875731914893
mp-695491,Na3Ca2Fe5(SiO3)10,1.0476,-7.8737972485,-2.812227676582758
mp-775329,Na3Li2Fe5(SiO3)10,2.7055,-7.7933697891,-2.735667297716091
mp-703370,Ca13Si10H12(O17F5)2,5.0622,-6.975681130126582,-3.071413105759493
mp-1197941,Na2CaZr2Si10O27,0.0,-8.110461871666667,-3.119210201851396
mp-697226,Ca2Mn7Si10H12O35,2.8581000000000003,-7.584960308939394,-2.489216073416928
mp-1173784,Na9Mg9Al(Si2O7)5,4.1184,-7.006490921875001,-2.976379852381466
mp-1202494,Mg9Si10Pb8(CO16)3,0.0,-7.085885370000001,-2.421568553173077
mp-1222261,Mg3Al8Fe(Si5O18)2,3.9981,-8.027441826551724,-3.273893302844827
mp-775172,Li5Sc2Fe3(SiO3)10,2.7961,-7.9938565708,-2.9876240383333332
mp-1210899,Na2CaSi10(H3O10)2,1.461399999999999,-6.930255627820513,-2.359167410647657
mp-728291,Na2CaZr2Si10O27,0.0,-8.108403077023809,-3.117151407208538
mp-534850,NaCa9Ti9Nb(SiO5)10,2.841599999999999,-8.4551745005,-3.427623457517241
mp-705502,NaCa9TaTi9(SiO5)10,2.9149000000000003,-8.492229447125,-3.442608122858908
mp-696633,Ca10TaTi8Al(SiO5)10,0.0,-8.195786483374999,-3.189740622674999
mp-705853,NaCa8SmTi10(SiO5)10,2.9163,-8.490869820625,-3.456979112246409
mp-1173088,Ca10TaTi8Al(SiO5)10,2.7784,-8.474317795625002,-3.468271934925
mp-1228057,BaNa4Ti2Si10(BO15)2,3.4488,-8.037662428163266,-3.157506589806474
mp-534838,Ca10Ta3Ti4Al3(SiO5)10,2.843199999999999,-8.454780309375,-3.453196465191667
mp-693409,Ca10Ti8NbAl(SiO5)10,2.8619,-8.43683296275,-3.452857383333334
mp-684696,BaNa4Ti2Si10(BO15)2,3.0028,-7.866179029795918,-2.986023191439127
mp-735910,K3Li5Al6Si10(O5F)6,0.0,-6.974486893833333,-2.814698507473611
mp-559419,Ba9LiSi10C(ClO4)7,4.928,-7.37835913125,-3.197212561979166
mp-1212565,Na2CaZr2Si10HO26,1.5226000000000002,-8.049785470833333,-3.095505100214491
mp-1207862,U6Si11O,0.0,-7.6970845455555565,-0.342922356944443
mp-764962,Fe25Si11O48,0.043599999999999,-8.252535735357142,-2.1938314875
mp-1225896,Er6Si11N20O,3.638899999999999,-8.46005661105263,-1.649574319078945
mp-2714419,Na6Nb8Si11SO48,2.8614,-8.247281895135137,-2.9745825555510272
mp-2714386,Na14Zr8Si11SO48,4.1789,-7.81721586691057,-3.079597792786305
mp-2714337,Na14Si11Sn8SO48,2.880499999999999,-6.849872529024391,-2.554998725631833
mp-2714502,Na14Hf8Si11SO48,4.181599999999999,-8.02795464,-3.152825502461102
mp-2714501,Na14Si11Ge8SO48,3.0327,-6.879563233373984,-2.524840064127769
mp-2714581,Na6Ta8Si11SO48,3.6789,-8.577515112162162,-3.113937664181656
mp-2714563,Na14Ti8Si11SO48,2.6275,-7.655109214878049,-2.9811212493716712
mp-677529,Sr2La18AlSi11O52,0.22409999999999902,-8.642265629523811,-3.726181933214287
mp-695082,Mg11AlFeSi11O36,2.7518000000000002,-7.435402444833333,-2.96947141625
mp-697308,Na17Zr12Si11P7O72,4.1993,-7.994553187310925,-3.127144227949145
mp-699405,Ca6Mg5Al2Si11O36,5.1007,-7.7799238155,-3.355220556750001
mp-690951,ErZr11Si11PO48,4.0268,-9.118941963472222,-3.546879104647817
mp-2714326,Na14Zr4Si11Sn4SO48,3.454299999999999,-7.33161910593496,-2.815373167176549
mp-2714336,Na14Ti4Si11Sn4SO48,2.756999999999999,-7.254135140894309,-2.769704256444842
mp-2714378,Na14Sc4Nb4Si11SO48,2.4877000000000002,-7.671941711910569,-2.9665981312009393
mp-2714388,Na14Ti4Si11Ge4SO48,2.5959000000000003,-7.265451984512196,-2.7510964171359
mp-2714342,Na14Hf4Zr4Si11SO48,4.1249,-7.922781132601626,-3.116407526770045
mp-2714364,Na14Ta4In4Si11SO48,3.4037,-7.390298328089431,-2.77313391123346
mp-2714338,Na14Ta4Al4Si11SO48,3.1816,-7.610065269390245,-2.944783677574923
mp-2714405,Na14La4Ta4Si11SO48,3.389999999999999,-7.731837809674797,-3.008486399566794
mp-2714456,Na14Hf4Ti4Si11SO48,2.7982,-7.842139854715447,-3.067581303192809
mp-2714418,Na14Nb4Ga4Si11SO48,2.5597000000000003,-7.279456579390244,-2.7353019295342733
mp-2714446,Na14Y4Nb4Si11SO48,2.6026,-7.682257116544716,-2.9682978092497203
mp-2714448,Na14Si11Sn4Ge4SO48,2.8832,-6.859783568211382,-2.534985081891997
mp-2714440,Na14Ta4Ga4Si11SO48,3.4097,-7.424902434308943,-2.794619857493622
mp-2714481,Na14Y4Ta4Si11SO48,3.3785,-7.826746686219512,-3.026659451965167
mp-2714431,Na14Zr4Ti4Si11SO48,2.7804,-7.728970213495935,-3.023167193680614
mp-2714496,Na14Zr4Si11Ge4SO48,3.434599999999999,-7.340901490528456,-2.7947308688432173
mp-2714526,Na14La4Nb4Si11SO48,2.5147,-7.585137975853659,-2.947914492705005
mp-2714559,Na14Nb4Al4Si11SO48,2.329,-7.463389875325204,-2.884236210469233
mp-2714560,Na6Ta4Nb4Si11SO48,2.8466,-8.413419416306306,-3.045281022523998
mp-2714572,Na14Hf4Si11Sn4SO48,3.2511,-7.438055753821139,-2.8530542833554122
mp-2714589,Na14Nb4In4Si11SO48,2.5938,-7.244442332276423,-2.7134058423798013
mp-2714578,Na14Sc4Ta4Si11SO48,3.4374000000000002,-7.822285826138211,-3.030814318469232
mp-2714598,Na14Hf4Si11Ge4SO48,3.2326,-7.445766017439024,-2.8308398640464683
mp-2716313,Na10La2Nb6Si11SO48,2.2082,-7.881353412521368,-2.9426862538841
mp-2716318,Na10Sc2Nb6Si11SO48,2.1863,-7.936657126581197,-2.962183249995212
mp-2716306,Na10Zr4Nb4Si11SO48,2.8081,-8.024573450042736,-3.033134775636237
mp-2716299,Na10Hf4Nb4Si11SO48,2.6997,-8.13174829534188,-3.068028164525126
mp-2716362,Na10Ta6Al2Si11SO48,3.040599999999999,-8.063435610299146,-3.019475214918288
mp-2716383,Na10Nb6Ga2Si11SO48,2.2354,-7.732157973162394,-2.842411611512305
mp-2716391,Na10Ti4Nb4Si11SO48,2.4968,-7.931673972777778,-2.9736818939268352
mp-2716408,Na10Ta6In2Si11SO48,0.8586,-7.945978221495727,-2.927310187311451
mp-2716419,Na10Sc2Ta6Si11SO48,3.111499999999999,-8.17166347482906,-3.061372482653331
mp-2716479,Na10Ta6Ga2Si11SO48,3.1072,-7.9671605451282055,-2.941597067888374
mp-2716460,Na10Y2Nb6Si11SO48,2.283,-7.940806920555556,-2.961804264610596
mp-2716473,Na10Nb6Al2Si11SO48,2.2349,-7.831538668119658,-2.923395388328545
mp-2716411,Na10Nb4Si11Ge4SO48,2.5239000000000003,-7.5199479749145315,-2.729774571020852
mp-2716400,Na10Zr4Ta4Si11SO48,3.6653000000000002,-8.181724926623932,-3.099741508490938
mp-2716477,Na10Nb6In2Si11SO48,2.3342,-7.713461553888889,-2.830610635294356
mp-2716492,Na10Ta4Ti4Si11SO48,2.4749,-8.08661066905983,-3.03807384648239
mp-2716493,Na10Ta4Si11Sn4SO48,3.2592,-7.6655295157264955,-2.816270650157604
mp-2716512,Na10La2Ta6Si11SO48,3.0152,-8.11481854405983,-3.040334269832818
mp-2716531,Na10Hf4Ta4Si11SO48,3.5717,-8.28992034965812,-3.135655475114869
mp-2716553,Na10Nb4Si11Sn4SO48,2.7262999999999993,-7.508643561324787,-2.749929439482391
mp-534773,Na2Al17Si11B7(H3O31)2,4.273,-7.831367047809524,-3.070061787470717
mp-2716515,Na10Ta4Si11Ge4SO48,3.2463,-7.676278161111111,-2.795560013490938
mp-2716575,Na10Y2Ta6Si11SO48,3.092599999999999,-8.17120727448718,-3.056387502952476
mp-1224471,Li14Ce5Si11N19O7F2,0.0,-7.225561481293103,-1.829373951063217
mp-1223420,Li14Nd5Si11N19O7F2,2.7504,-7.147328981293103,-1.8519002818821821
mp-773636,Fe19(SiO4)12,1.2866,-8.202688269746837,-2.33513956607595
mp-1219366,Si12CO24,1.6378,-8.18506252,-2.966588304527027
mp-1224625,K8Nd3(Si4O11)3,0.9364999999999991,-7.5999236083928565,-3.104532008312499
mp-760086,Li17Fe6(Si2O7)6,0.0,-7.250131724545455,-2.624287639307359
mp-765349,Li2Cr5(Si2O5)6,1.6612,-8.279830097040817,-2.858896840034013
mp-1178100,Li17Cr6(Si2O7)6,0.434299999999999,-7.481356175714286,-2.7633282260606062
mp-1202365,Na8Y3(SiO3)12,0.0,-7.450376370677966,-2.814928010187025
mp-1227528,Be6Al4Si12O37,0.782799999999999,-8.013899451694915,-3.173269721949152
mp-1221511,Na2Mg5(Si2O5)6,4.6080000000000005,-7.7581262954081645,-3.178974496586911
mp-1224568,K2Mn5Si12O31,0.568399999999999,-8.1964599671,-2.865191498683102
mp-772287,Li2Si12(NiO6)5,3.9543,-7.746646401428571,-2.720908122993197
mp-850291,Li2Mn5(Si2O5)6,2.997299999999999,-8.295452864489796,-2.92462493176167
mp-1211913,K3Mn5(Si2O5)6,0.0,-8.1649664472,-2.910029804428103
mp-1200345,Na4Ce2(Si4O11)3,0.039700000000000006,-7.700505966666666,-2.8842841553042593
mp-1221060,Na5Zr2Si12O37,0.0,-7.384972713571428,-2.528144522533866
mp-1223764,K2Ba5(Si2O5)6,4.71,-7.878702065102042,-3.278696745602041
mp-766401,Na5Fe6(SiO3)12,0.0,-7.793673898135593,-2.6960612931677392
mp-1221917,Na13Mn5(SiO3)12,0.459999999999999,-7.370333817121212,-2.726654133448276
mp-1194598,Y2Mn(Si3O7)4,4.448,-8.558479767093024,-3.306690864951885
mp-1221150,Na8Zr3Si12SnO40,1.13,-7.48241483953125,-2.7416539561880393
mp-1224617,K8Zr3Si12SnO40,0.8252,-7.52552721609375,-2.811060214734375
mp-1226025,K3Zr4Si12HO44,0.0,-7.70825547875,-2.648971436453124
mp-1225838,K8Gd3Si12ClO34,0.08509999999999901,-7.948005166034483,-3.008999102379311
mp-2712822,Na14Ta5Ga3(SiO4)12,3.4024,-7.6578000454878055,-2.904032224981427
mp-2712837,Na14Y3Nb5(SiO4)12,2.4691,-7.759932877357724,-2.986471472471265
mp-2712833,Na14Nb5Al3(SiO4)12,2.4725,-7.610522695406504,-2.938165522349313
mp-2712861,Na14Nb5Ga3(SiO4)12,2.524599999999999,-7.471385646463415,-2.825277734656224
mp-2712898,Na14Ta5In3(SiO4)12,3.2013,-7.624789475650407,-2.880860275113541
mp-2712988,Na14La3Nb5(SiO4)12,2.1245,-7.670797038333333,-2.9548875015566303
mp-2712987,Na14Sc3Nb5(SiO4)12,2.5198,-7.762716923414635,-2.9957173134672
mp-2712974,Na14Ta5Al3(SiO4)12,3.390199999999999,-7.7955801953658534,-3.015563113609475
mp-2713027,Na14Y3Ta5(SiO4)12,3.287899999999999,-7.9409597072764235,-3.059838393690778
mp-2713055,Na14La3Ta5(SiO4)12,2.9132,-7.854032683130081,-3.030463237654192
mp-2713056,Na14Sc3Ta5(SiO4)12,3.3024,-7.947232195121952,-3.07257267647533
mp-2713071,Na14Nb5In3(SiO4)12,2.4949,-7.441590866504065,-2.805321574666386
mp-2713178,Na10ScTa7(SiO4)12,3.5433,-8.324911613076925,-3.127166558078545
mp-2713206,Na10Ta7In(SiO4)12,3.5863,-8.208398637820514,-3.056465061817861
mp-2713337,Na10Nb7Ga(SiO4)12,2.743,-7.946751153376069,-2.949823157367006
mp-2713359,Na10ScNb7(SiO4)12,2.7549,-8.050051825897437,-3.010760072420426
mp-2713378,Na10YNb7(SiO4)12,2.7503,-8.048379649358974,-3.006823506202476
mp-2713335,Na10LaTa7(SiO4)12,3.534,-8.294783967521369,-3.114942271497348
mp-2713429,Na10Nb7Al(SiO4)12,2.69,-7.992131871068377,-2.986005415988801
mp-2713440,Na10Ta7Al(SiO4)12,3.5922,-8.268996141239317,-3.104416384638373
mp-2713458,Na10Ta7Ga(SiO4)12,3.652599999999999,-8.221680616324786,-3.066299318794356
mp-2713533,Na10LaNb7(SiO4)12,2.6808,-8.02102975025641,-2.999641355753758
mp-2713494,Na10Nb7In(SiO4)12,2.7269,-7.93524904508547,-2.941768770604185
mp-2713508,Na10YTa7(SiO4)12,3.5149,-8.322651812222222,-3.122642367544356
mp-677550,Ca5Al12Si12(AgO24)2,2.2072,-7.776616429113924,-3.178303399789029
mp-677726,Al12Si12Ag16S5O48,0.0,-6.907435585806451,-2.458708109991039
mp-695496,Mg21FeSi12(HO16)3,1.8410000000000002,-7.052739299882353,-2.870370647632352
mp-743959,Mg21FeSi12(HO16)3,1.6845999999999992,-7.071116189058824,-2.888747536808823
mp-766133,Li6ScFe5(SiO3)12,2.7584,-7.908216469833333,-2.852107721583333
mp-1214578,BaNa4Ti2(Si2O5)6,0.0,-7.94305431489796,-3.114085159840488
mp-677015,Na3Sm17Si12(O25F)2,4.657,-8.408709853333333,-3.640011067727833
mp-1228270,Ba4TiSi12(SnO12)3,3.2599,-8.001273601785716,-3.165014318184525
mp-1260941,KMn2Zn3(Si2O5)6,0.0048000000000000004,-7.866264740625,-2.933404789648168
mp-704116,KMn2Zn3(Si2O5)6,9.999999999976698e-05,-7.774608876979166,-2.841748926002335
mp-690914,KNaMg5(Si2O5)6,4.748,-7.764084128673469,-3.189225208543455
mp-1173467,RbNaMg5(Si2O5)6,4.792400000000001,-7.765547096428572,-3.193766454875089
mp-6844,KLi3Si12(SnO15)2,4.4444,-7.794421681041666,-3.035673169734375
mp-15541,KNa2Si12(BO10)3,5.136100000000001,-8.066526093854167,-3.120783737552263
mp-16055,KLi3Zr2(Si2O5)6,5.1673,-8.205795282291666,-3.257958072026041
mp-1198649,K9Y3Si12(O16F)2,4.995,-7.626498520344827,-3.195879981124999
mp-1203427,Zn3Si12H78(C13O2)2,2.819,-5.113888866585366,-0.289147596361788
mp-1211874,K9Gd3Si12(O16F)2,3.7656,-8.009469045862067,-3.187452364918101
mp-555060,K9Eu3Si12(O16F)2,0.0,-7.701241548103448,-3.075156435693965
mp-560235,K9Sm3Si12(O16F)2,4.898499999999999,-7.524337777241379,-3.186331584487068
mp-1248193,Al12Si12Ag16S5O48,0.0,-6.910693234086021,-2.4619657582706083
mp-694935,K3LiMg4(Si2O5)6,4.77,-7.6574841303,-3.150132958201667
mp-1221336,Na3LiMg4(Si2O5)6,4.348699999999999,-7.6477869061,-3.127814670649425
mp-695366,Na3LiMg4(Si2O5)6,0.531199999999999,-6.959719450299999,-2.439747214849424
mp-1221930,Mn9Al8Fe3(SiO4)12,3.5858,-8.418684944999999,-2.9132005387672413
mp-1221527,Na2Mg3Zn2(Si2O5)6,4.1812,-7.634984447857143,-3.07096433903589
mp-1222247,Mg9Al8Fe3(SiO4)12,4.1863,-7.794641687625,-3.1364561250625
mp-1224589,K2Mg3Zn2(Si2O5)6,4.388999999999999,-7.646069215918367,-3.090634864479592
mp-1227888,Ca3Mg9Al8(SiO4)12,4.980499999999999,-7.713363455625,-3.2975936929375003
mp-766215,Na5LiFe6(SiO3)12,2.765,-7.774431229666667,-2.729963453670499
mp-1221962,Na12Ca3Fe2(SiO3)12,2.602299999999999,-7.203216448769231,-2.8603256188700272
mp-1227897,Ca8Al11Fe(Si3O13)4,0.0,-7.857730905714287,-3.237326822380953
mp-1227819,Ca8Al11Fe(Si3O13)4,0.0,-7.856084995952381,-3.235680912619047
mp-1228733,Ba6Mn4Si12Cl3O34,0.009799999999999,-7.953406325593221,-3.08828748969024
mp-1181756,K2Na4Ca5(Si6O17)2,0.0183,-7.3252426710526315,-2.92187227649153
mp-1205191,K2Na4Ca5(Si6O17)2,0.0,-7.380142989473684,-2.976772594912583
mp-1221263,Na4Ca7MnSi12(HO9)4,4.1171,-7.510237384218749,-3.051187761382004
mp-1221236,Na4Mg11AlSi12(HO10)4,0.0,-7.159780897499999,-2.9424121277155173
mp-1221274,Na4Ca7MnSi12(HO9)4,4.1341,-7.50994886328125,-3.050899240444504
mp-693682,Na25Zr11Sc5Si12(PO8)12,3.9074,-7.841112009627329,-3.093759046491906
mp-695601,Na7Al12Si12H6ClO48,3.6085000000000003,-7.312203390930232,-2.903314608339013
mp-1203739,K3NaAl12Si12(HO6)8,4.803,-7.514643557261904,-2.9973814618229673
mp-1205072,KNa3Al12Si12(HO6)8,4.7097999999999995,-7.508776356607143,-2.986505902695095
mp-1197175,KLi3Ca7Ti2(Si6O19)2,0.012100000000000001,-7.837007091428571,-3.236774455458994
mp-709921,Cs2Na4Cu2Si12H4O31,1.1812,-7.202347168545455,-2.703210352815048
mp-1221546,Na16Al12Si12I3ClO48,4.234999999999999,-7.120003874347826,-3.039123857794227
mp-851120,KNa2Li3Zr2(Si2O5)6,0.0,-7.902498829399999,-3.098906276400171
mp-16282,KNa2Li3Cr2(Si2O5)6,3.8492,-7.8713779288,-3.023571502200172
mp-16283,KNa2Li3Fe2(Si2O5)6,3.329399999999999,-7.76116535,-2.960679973800172
mp-1202299,Na2Mg5Mn11Si12(AsO25)2,0.021900000000000003,-7.927739453902439,-2.641641020731708
mp-693620,KCa2Be2Al(Si2O5)6,4.869,-8.0798833671875,-3.290099668171875
mp-1219802,RbNaMg3Zn2(Si2O5)6,4.2766,-7.6439239400000005,-3.087274988446516
mp-1223684,KNaMg3Zn2(Si2O5)6,4.285,-7.646221425204082,-3.086494195074068
mp-705485,NaCa5ScZn5(SiO3)12,4.1363,-7.5293904525,-3.075535121272989
mp-720332,Na5CaAl5Fe(SiO3)12,3.257799999999999,-7.7789271026666675,-3.126551824781609
mp-534793,KCa5Mg5Al(SiO3)12,5.099399999999999,-7.737999734333333,-3.299871274870833
mp-1227544,Ca8Al9Fe3Si12(HO13)4,2.598799999999999,-7.7992813264772725,-3.127196104715908
mp-1227584,Ca8Al9Fe3Si12(HO13)4,2.6141,-7.799091724545454,-3.127006502784089
mp-851118,KNa2LiZr2(Si2O5)6,4.7585,-8.142316424791668,-3.21811263486129
mp-641919,KLi3Ca7Ti2Si12(O18F)2,3.5105,-7.859956873174603,-3.356045146093916
mp-1249531,Sr5Al11TlSi13O48,3.1064,-7.864398585128204,-3.248165132222222
mp-1248874,K2Al11Si13(Ag3O16)3,1.376199999999999,-7.268419295421687,-2.725265376018072
mp-1254519,Ca5Al11TlSi13O48,2.5951,-7.852063316410256,-3.215754748760684
mp-677572,Na8Al11Si13(AgO16)3,2.1602,-7.371991557951807,-2.9322906420004142
mp-686232,Na7Al11Si13(AgO12)4,0.5585,-7.309432784578313,-2.851644918027973
mp-686588,RbNa10Al11Si13O48,2.4898,-7.442291243855422,-3.061202826762567
mp-686702,Ca4Al11Si13(AgO16)3,2.4986,-7.7395218911392405,-3.109347089683544
mp-686718,Sr5Al11TlSi13O48,2.9573,-7.85644879551282,-3.240215342606838
mp-690919,Na8Al11Si13(AgO16)3,0.05399999999999901,-7.279534263614457,-2.839833347663065
mp-695452,K2Al11Si13(Ag3O16)3,1.2879,-7.257338415301204,-2.714184495897589
mp-695373,Na4Al11Si13Ag7O48,1.513199999999999,-7.293217541325301,-2.78116882297812
mp-703276,Ca5Al11TlSi13O48,0.4554,-7.8277598134615385,-3.191451245811965
mp-705861,Rb10NaAl11Si13O48,2.2161,-7.4136433365060235,-3.071719742968425
mp-706809,Ca2Al11Si13Ag7O48,1.7280000000000002,-7.46964565728395,-2.862925160144032
mp-720212,Rb9Na2Al11Si13O48,2.456,-7.419498032650603,-3.073222792051309
mp-677551,Na6MgAl4Si13O36,5.2194,-7.673547768166667,-3.118233958554598
mp-1248154,K6Al11Si13Ag5O48,1.7062,-7.302017014096386,-2.841348297371486
mp-686585,K6Al11Si13Ag5O48,1.6018,-7.295800606987952,-2.8351318902630522
mp-695608,Rb8BaNaAl11Si13O48,2.0499,-7.484065189756098,-3.089704640260724
mp-720112,Sr5Al10(Si7O24)2,4.2326999999999995,-8.054868184675325,-3.387667153376623
mp-690987,Na7Al10Si14(AgO16)3,2.3001,-7.446595568536585,-2.9486297460323803
mp-1200390,Zn3Si14H90(C15O2)2,2.7698,-5.111415860744681,-0.27488769384751705
mp-1196368,K2Na6Zn4Si14O45,0.29250000000000004,-6.503605827464788,-2.081567289405294
mp-1173187,SrHo31Al2Si14N13O59,1.857699999999999,-8.282691061416667,-3.049412681708332