Material_ID,Formula,Band_Gap,Energy_per_Atom,Formation_Energy_per_Atom
mp-867713,Eu2SiO5,0.0,-9.544444306875,-3.201775946250002
mp-1095481,TiSiO4,1.653699999999999,-8.747515279166667,-3.228739601388889
mp-1211198,Li3SiO4,0.0,-6.393788114375,-2.525796783125
mp-4391,MgSiO3,4.642499999999999,-7.349852831,-2.969918619
mp-9516,Al2SiO5,5.462099999999999,-7.973084003125,-3.26604966375
mp-1198795,KSiO3,0.21320000000000003,-6.740625377000001,-2.46051122345
mp-1178876,USiO7,0.06529999999999901,-7.807221606666666,-2.101393264999998
mp-1020117,MgSiO3,4.7652,-7.59981809975,-3.21988388775
mp-1020115,MgSiO3,4.7633,-7.598188193,-3.218253981
mp-1173151,SrSiO3,0.0514,-6.9305118545,-2.5381860275
mp-1192867,U2SiO10,0.0,-8.577944898076924,-2.617348890384616
mp-1214149,Cd2SiO2,0.008499999999999001,-4.4160530685,-0.9678009844999991
mp-18800,Cr2SiO4,1.9961000000000002,-8.867631577142857,-2.507166292857142
mp-4530,Cd2SiO4,1.462999999999999,-6.092007931428567,-2.215267584285709
mp-779704,Si(HgO2)2,1.2322,-5.425356810714285,-1.734427364285715
mp-1001082,Si(CO)2,0.0,-7.213562204,-0.45784799900000006
mp-1178612,ZnSiO3,3.571799999999999,-6.9622586685000005,-2.6564697375
mp-1205057,Na2SiO12,0.0,-5.068123005333334,-0.569170228850575
mp-1020717,Zn2SiO4,2.3581,-6.2874435725,-2.325065105357142
mp-1103684,Fe2SiO4,0.9995,-7.925364577142857,-1.9029067957142862
mp-1205330,Ca3SiO,0.056599999999999005,-4.876703399,-1.598687663999999
mp-18941,Co2SiO4,1.308399999999999,-7.723670093571428,-2.083099309285714
mp-5096,CaSiO3,3.6753,-7.661885076999999,-3.206924891999999
mp-673808,Mg2SiO4,4.017200000000001,-7.127607268571428,-3.059306971428571
mp-3216524,Yb3SiO,0.0,-26.412125718,-1.5459414540000012
mp-5392,Mg2SiO4,3.6982,-6.938579056428571,-2.8702787592857133
mp-5391,Mg2SiO4,4.497299999999999,-7.231243268571428,-3.162942971428571
mp-769922,V2SiO4,0.0,-8.748724490714286,-2.550871035000001
mp-1173298,SiH2O,3.0776,-4.83077578,-0.5398728018750001
mp-1183642,Ca3SiO5,3.8608000000000002,-7.395328825185185,-3.375115192407407
mp-1225100,Fe7SiO10,0.7865000000000001,-8.129000856666666,-1.784829937222221
mp-675098,SiH2O,0.0,-4.938125755,-0.6472227768750001
mp-758206,Fe35SiO48,0.5619000000000001,-7.452729319166668,-1.031560407023811
mp-1209067,Si(AgO)2,0.0,-4.994894728499999,-0.793471649166665
mp-556164,Si(AgO)4,0.6733,-5.347205506666665,-1.2817707551851831
mp-1095453,TiSiO4,2.0936,-8.689303888333333,-3.170528210555556
mp-11736,ZrSiO4,4.000099999999999,-9.106630679166665,-3.479153565833332
mp-532143,MnSiO3,2.6502,-8.600073681125,-2.713830413711206
mp-772412,MgSiO3,4.953200000000001,-7.522253549625001,-3.142319337625
mp-1046697,CrSiO5,0.756999999999999,-7.763179238571429,-2.074869163571429
mp-660318,Cd2SiO4,1.552899999999999,-6.058226642857143,-2.181486295714285
mp-676278,Ca2SiO4,4.053000000000001,-7.477553732142857,-3.302073473571428
mp-1019573,CaAl2SiO6,4.619100000000001,-7.889089964,-3.428106404
mp-1019568,CaAl2SiO6,4.484,-7.872533276,-3.411549716
mp-1019572,CaAl2SiO6,4.549800000000001,-7.87233703025,-3.41135347025
mp-1046592,TiZnSiO5,3.0316,-7.8529826637500015,-2.937937828541668
mp-1048600,ZnFeSiO5,0.0,-7.078867399375,-2.092006415000001
mp-1178074,Li15Fe15SiO32,1.905799999999999,-6.990976421746032,-1.920433067142857
mp-1220943,NaAlSiO4,4.3509,-7.462371863928571,-3.133163484125615
mp-1222213,Mg2Al2SiO9,0.0,-6.879974192857143,-2.543612852500001
mp-1222230,Mg2Al2SiO9,0.0,-6.883291771785714,-2.546930431428571
mp-1222533,Li4SiGe3O10,0.000299999999999,-6.644789283333334,-2.39980577712963
mp-1223541,KAlSiO4,4.5177,-7.482695741428571,-3.183537512464286
mp-1227806,Ca3Al4SiO12,0.0,-7.4211181525,-3.1311205
mp-1239225,Li7SiPO8,4.1742,-6.398022285294117,-2.645849363998599
mp-1256211,MgTiSiO5,2.892599999999999,-8.2275144525,-3.266128816666667
mp-1257226,CsMg6SiO8,0.0,-6.1232598775,-2.642022144353448
mp-1264059,MgVSiO5,1.307699999999999,-8.01063287,-2.900695477500001
mp-1296460,Li2SiNiO4,3.7673,-6.7859374609375,-2.434044403020833
mp-1397660,ZnCrSiO5,0.0,-7.509295218125001,-2.37455595125
mp-1443493,MgSiNiO5,0.0708,-6.804523450625,-2.107557231875
mp-1648601,Li2SiNiO4,3.3765,-6.744890561249999,-2.392997503333332
mp-2224814,MgNb3SiO10,0.0,-8.680538194,-2.891250646333333
mp-2232134,MgNb3SiO10,0.0,-8.709235149333333,-2.9199476016666663
mp-2232153,MgNb3SiO10,0.0,-8.683002853333333,-2.893715305666666
mp-2241183,MgNb3SiO10,0.0,-8.763823271333333,-2.974535723666666
mp-721255,Li10Si(PO6)2,5.1063,-6.421947701200001,-2.633106668904762
mp-752534,LiCoSiO4,1.3333,-7.198908149285715,-2.304693629761906
mp-752799,Li2FeSiO4,3.0614,-7.22010053125,-2.5319719070833333
mp-753561,Li2VSiO4,1.6155,-7.373151188958332,-2.608286957291666
mp-756759,Li7Fe7SiO16,1.532499999999999,-7.037842242580645,-1.965413124946235
mp-756994,Li7Fe7SiO16,2.0109,-7.0948662796774205,-2.022437162043009
mp-757339,Li16Fe4SiO16,2.1994,-6.097622769729729,-2.070175612522523
mp-761711,Li4V3SiO10,1.4734,-7.552429394444445,-2.563966185740742
mp-861689,Li15Cr15SiO32,1.639,-7.733366480793651,-2.381150207142856
mp-867892,Li15Mn15SiO32,0.21960000000000002,-7.416430872857143,-2.181127022523263
mp-1078468,MgSi(HO2)2,5.3348,-6.553856615,-2.3491109971875
mp-752904,Li3Fe3SiO8,1.571899999999999,-7.223741324666666,-2.147352104666666
mp-753399,Li3SiNi3O8,0.3814,-6.368141936666666,-1.8297296226666662
mp-755028,Li3Cr3SiO8,3.077899999999999,-7.846132703333334,-2.533138231333333
mp-761765,Li3Mn3SiO8,1.1074,-7.538112169,-2.323324132586207
mp-696125,Li10Si(PO6)2,5.2544,-6.405741493000001,-2.616900460704762
mp-1104298,NaCaSiO4,0.10699999999999901,-6.899543916428571,-2.818903529482758
mp-754539,LiVSiO5,2.1668,-7.832759864374999,-2.688015865416666
mp-1207992,Tm2Be2SiO7,5.3393,-8.306522094166667,-3.597782614583334
mp-1212955,Eu2Be2SiO7,0.006099999999999,-8.889877654583334,-3.213536435833334
mp-1208884,Sm2Be2SiO7,5.1019,-8.297009579166668,-3.548922657083332
mp-1212449,Gd2Be2SiO7,3.314799999999999,-9.85180258625,-3.544126313333334
mp-1212878,Er2Be2SiO7,5.3446,-8.31461837375,-3.591676005833333
mp-1208515,Tb2Be2SiO7,5.1182,-8.315660195,-3.5810270248611102
mp-1213057,Dy2Be2SiO7,5.089600000000001,-8.315367359166666,-3.58398220486111
mp-1210829,Lu2Be2SiO7,5.2839,-8.311568290416666,-3.596297815277777
mp-559691,Ca2Al2SiO7,4.284800000000001,-7.740008175,-3.443058467916666
mp-6655,Y2Be2SiO7,5.1545,-8.608045862916667,-3.561541379999999
mp-7013,Ho2Be2SiO7,5.0859,-8.3146886125,-3.586752802083332
mp-9077,Nd2Be2SiO7,5.0227,-8.280114960833332,-3.523767822499999
mp-752851,Ca2SiB2O7,5.6806,-8.033337982916667,-3.24741895236111
mp-559747,La2Ti2SiO9,2.6015,-9.0791323325,-3.677706238333333
mp-560000,Ce2Ti2SiO9,0.0,-9.147468898214285,-3.603050980476188
mp-752946,Li2CoSiO4,2.5097,-7.005612853125,-2.484559790208333
mp-861513,Rb5SiHO5,2.5914,-5.27580872,-2.0705620653125
mp-1227478,Ca2Al2SiO8,0.0,-7.440043067307692,-3.093015568076922
mp-752853,Li2FeSiO4,3.2364,-7.236468377187499,-2.548339753020832
mp-752844,Li2MnSiO4,2.770299999999999,-7.446450049375,-2.671822164949713
mp-764642,Li2CoSiO4,2.3731,-7.0065095896875,-2.4854565267708333
mp-752606,Li2CuSiO4,0.0645,-6.48118751875,-2.339410712083333
mp-7610,Li2CaSiO4,5.189699999999999,-6.910444989999999,-3.030369032083332
mp-1030808,NaMg6SiO8,0.7210000000000001,-6.16929130875,-2.660944625086207
mp-1030833,Mg6NbSiO8,1.4844,-6.472420080625,-2.416599380624999
mp-1030825,Mg6CdSiO8,3.5345,-5.9457232625,-2.461233490624999
mp-1030828,Mg6SiBO8,0.050999999999999004,-6.125562059374999,-2.283610938697916
mp-1030823,Mg6NbSiO8,1.4015,-6.497534179375,-2.441713479375
mp-1030830,BaMg6SiO8,3.537699999999999,-5.92993566625,-2.385510597499999
mp-1030841,SrMg6SiO8,2.283800000000001,-6.083548175624999,-2.553282284999999
mp-1030814,HfMg6SiO8,0.2255,-6.625522344375,-2.578708895
mp-1030826,SrMg6SiO8,3.6434,-6.116039764374999,-2.585773873749999
mp-1030850,Mg6CdSiO8,1.855699999999999,-5.936484225625,-2.451994453749999
mp-1030846,BaMg6SiO8,1.4646,-5.909992945,-2.36556787625
mp-1030869,Mg6SiBO8,0.7093,-6.181419035625,-2.339467914947916
mp-1030870,HfMg6SiO8,0.290799999999999,-6.574561145,-2.527747695625
mp-1030893,Mg6CrSiO8,2.219999999999999,-6.5790935556250005,-2.5512889537500003
mp-1030861,Mg6SiCO8,1.598700000000001,-6.25227282125,-2.25099209296875
mp-1030873,RbMg6SiO8,0.5860999999999991,-5.7436657825,-2.25789326796875
mp-1030883,Mg6CrSiO8,2.0172,-6.57141271875,-2.543608116875
mp-1030926,Mg6SiBiO8,0.21429999999999902,-5.921032754375,-2.253416475
mp-1030856,Mg6SiCO8,0.39829999999999904,-6.12282605625,-2.12154532796875
mp-1030871,CsMg6SiO8,0.5870999999999991,-5.6589352925,-2.177697559353448
mp-1030892,Mg6SiBiO8,3.4837,-5.91914868875,-2.251532409374999
mp-1030903,LiMg6SiO8,0.7457,-6.298150408124999,-2.7543535939583332
mp-1030909,LiMg6SiO8,0.8042,-6.2984594025,-2.754662588333333
mp-1030853,RbMg6SiO8,0.7384000000000001,-5.837391868125,-2.351619353593749
mp-1031074,NaMg6SiO8,0.8289999999999991,-6.181475545,-2.673128861336206
mp-1031157,Mg6TiSiO8,0.062999999999998,-6.530595864375,-2.612638478333333
mp-1031147,Mg6TiSiO8,0.1322,-6.49718493375,-2.5792275477083333
mp-1031233,CsMg6SiO8,0.0,-5.589880927499999,-2.108643194353448
mp-1031242,KMg6SiO8,0.6905,-5.926494593749999,-2.431294851078124
mp-1031251,KMg6SiO8,0.7852,-5.9813196975,-2.486119954828125
mp-1031493,Mg6SiSnO8,2.532700000000001,-6.028415855625,-2.3533284796875
mp-1031460,Mg6SiSnO8,2.6706000000000003,-6.024953088749999,-2.349865712812499
mp-1031682,Mg6VSiO8,3.1366,-6.58556887875,-2.593335614375
mp-1031567,Mg6AlSiO8,0.9564,-6.289316956875,-2.6307293325
mp-1031540,Mg6AlSiO8,0.029399999999998,-6.180063319375,-2.521475695
mp-1031664,Mg6VSiO8,3.219900000000001,-6.578603876874999,-2.586370612499998
mp-1031821,Mg6SiNiO8,1.279,-6.26758058375,-2.48183290625
mp-1031808,Mg6SiNiO8,0.7695999999999981,-6.301245174374999,-2.515497496875
mp-1032002,Mg6ZnSiO8,2.9215,-6.05209969375,-2.548876583124999
mp-1032102,Mg6CuSiO8,0.683099999999999,-6.21846721,-2.537777658125
mp-1032022,Mg6ZnSiO8,3.2626,-6.046278443749999,-2.543055333124999
mp-1032193,Mg6CoSiO8,0.8366999999999991,-6.38898988125,-2.518662201249999
mp-1032166,Mg6CoSiO8,0.7902999999999991,-6.375131723124999,-2.504804043125
mp-1032273,Mg6CuSiO8,0.0,-6.183964974999999,-2.503275423124999
mp-1032411,Mg6MnSiO8,2.9895,-6.5671264731250005,-2.57001138237069
mp-1032522,Mg6FeSiO8,0.562599999999999,-6.435354472499999,-2.481489011874999
mp-1032437,Mg6MnSiO8,3.489200000000001,-6.575198524375,-2.578083433620689
mp-1032523,Mg6FeSiO8,2.8207999999999993,-6.46591028875,-2.512044828125
mp-1032858,YMg6SiO8,0.268,-6.42375197375,-2.59244462
mp-1032906,YMg6SiO8,0.7674000000000001,-6.458240565624999,-2.626933211874999
mp-1032982,CaMg6SiO8,3.648199999999999,-6.25819269625,-2.708353568749999
mp-1032962,CaMg6SiO8,3.1243,-6.2328340875,-2.682994959999999
mp-1033911,KMg14SiO16,0.6312999999999991,-6.1426590996875,-2.750451473351562
mp-1034271,Mg14SiSnO16,2.718099999999999,-6.16457119375,-2.682419750781249
mp-1034194,Mg14TiSiO16,0.1363,-6.417141229999999,-2.813554781979166
mp-1034591,Mg14SiCO16,0.25070000000000003,-6.212234624687499,-2.566986505546874
mp-1034587,Mg14SiBiO16,0.1585,-6.083419045937499,-2.605003151249999
mp-1034659,NaMg14SiO16,0.6536999999999991,-6.2459208375,-2.847139740668103
mp-1034449,Mg14VSiO16,3.151399999999999,-6.45139353625,-2.8106691490625
mp-1034573,HfMg14SiO16,0.040499999999999,-6.4264060709374995,-2.758391591249999
mp-1034765,Mg14NbSiO16,1.576299999999999,-6.396786874062499,-2.724268769062499
mp-1034749,Mg14SiNiO16,0.10739999999999901,-6.289299280937501,-2.751817687187499
mp-1034699,RbMg14SiO16,0.5973,-6.063240378437499,-2.675746366171874
mp-1034777,Mg14CdSiO16,2.6151,-6.128620884375,-2.741768243437499
mp-1034729,BaMg14SiO16,2.736699999999999,-6.105636105625,-2.68881581625
mp-1034686,SrMg14SiO16,3.001900000000001,-6.204959740937499,-2.795219040624999
mp-1034815,Mg14CrSiO16,1.5587,-6.4438424125000004,-2.7853323565625
mp-1034986,Mg14CoSiO16,0.4373,-6.3454928159375,-2.7657212209375
mp-1034896,Mg14ZnSiO16,2.888899999999999,-6.1849351121875,-2.788715801874999
mp-1035222,Mg14CuSiO16,0.0,-6.255228394375,-2.7702758634375
mp-1035527,LiMg14SiO16,0.6566000000000001,-6.3037849228125005,-2.887278760729166
mp-1035561,Mg14FeSiO16,2.646,-6.3935475346874995,-2.772007049374999
mp-1035937,YMg14SiO16,0.0,-6.3682444459375,-2.8079830140625
mp-1036087,Mg14MnSiO16,0.6424999999999991,-6.4446392684375,-2.8014739680603453
mp-1036298,CaMg14SiO16,0.7162000000000001,-6.28020465625,-2.860677337499999
mp-1036569,Mg14AlSiO16,0.0,-6.265848366562499,-2.791946799374999
mp-1036730,Mg30SiSnO32,0.5617999999999991,-6.24664182,-2.860958343515625
mp-1036665,Mg30SiSnO32,1.7932000000000001,-6.246937628437499,-2.861254151953124
mp-1036736,Mg30VSiO32,1.8949,-6.38962020171875,-2.924650253125
mp-1036757,Mg30VSiO32,1.6951,-6.389153064218751,-2.924183115625
mp-1036904,Mg30SiNiO32,0.0,-6.325581818281249,-2.912233266406249
mp-1036956,Mg30SiNiO32,1.783399999999999,-6.3131465998437495,-2.899798047968749
mp-1037157,Mg30CoSiO32,0.0,-6.3492469990625,-2.9147534465625
mp-1037137,Mg30CoSiO32,0.0,-6.3414064334375,-2.9069128809375
mp-1037328,Mg30CuSiO32,0.484,-6.30413713125,-2.91705311078125
mp-1037343,Mg30ZnSiO32,1.9527,-6.2568413396875,-2.91412392953125
mp-1037409,Mg30CuSiO32,0.0,-6.292968600156249,-2.9058845796874992
mp-1037606,Mg30FeSiO32,1.851399999999999,-6.36132970953125,-2.9059517118750002
mp-1037585,Mg30ZnSiO32,1.8216,-6.255607500312499,-2.912890090156249
mp-1037665,YMg30SiO32,0.0,-6.34600444328125,-2.921265972343749
mp-1037670,YMg30SiO32,0.15359999999999902,-6.34329380890625,-2.918555337968749
mp-1037676,Mg30FeSiO32,0.0,-6.3601938340625,-2.9048158364062493
mp-1037835,CaMg30SiO32,1.4436,-6.302227959375,-2.947856545
mp-1038035,Mg30MnSiO32,1.976499999999999,-6.38311541328125,-2.9169250080926723
mp-1038016,CaMg30SiO32,1.8760999999999992,-6.304296621718749,-2.949925207343749
mp-1038039,Mg30MnSiO32,1.4162,-6.38417757046875,-2.917987165280172
mp-1038212,Mg30AlSiO32,0.273199999999999,-6.29918320015625,-2.9176246615625
mp-1038247,Mg30AlSiO32,0.33380000000000004,-6.310015405937499,-2.928456867343749
mp-1039876,Mg30SiBO32,0.7318,-6.301200131562499,-2.873800718893228
mp-1039784,HfMg30SiO32,0.0,-6.3689991525,-2.89038415765625
mp-1039804,Mg30SiCO32,0.8003999999999991,-6.259831116562499,-2.792599301992187
mp-1039831,Mg30CdSiO32,1.6208,-6.228367455468749,-2.890333379999999
mp-1039854,Mg30NbSiO32,0.732499999999999,-6.363423520937499,-2.882556713437499
mp-1039875,Mg30CrSiO32,0.6909999999999991,-6.3806637653125,-2.90680098234375
mp-1039892,Mg30CrSiO32,1.8290000000000002,-6.38614312953125,-2.9122803465625
mp-1039905,SrMg30SiO32,1.0831,-6.267057090781249,-2.917578985624999
mp-1039844,HfMg30SiO32,0.0,-6.37019771546875,-2.891582720625
mp-1039851,Mg30SiBiO32,0.0585,-6.203539438124999,-2.819723735781249
mp-1039816,Mg30SiCO32,1.037699999999999,-6.31552486515625,-2.848293050585937
mp-1039821,Mg30NbSiO32,0.7725000000000001,-6.36422123765625,-2.88335443015625
mp-1039820,Mg30SiBO32,0.0,-6.2710762753125,-2.843676862643229
mp-1039843,Mg30SiBiO32,0.098399999999999,-6.22953851703125,-2.845722814687499
mp-1039822,BaMg30SiO32,1.6209,-6.22561460984375,-2.87259671015625
mp-1039856,Mg30CdSiO32,1.5483,-6.22907931703125,-2.8910452415625
mp-1039906,SrMg30SiO32,1.7525,-6.2694224596875,-2.9199443545312502
mp-1039945,RbMg30SiO32,0.0,-6.22935222125,-2.890997460117187
mp-1039914,BaMg30SiO32,0.666299999999998,-6.22492310359375,-2.87190520390625
mp-1039950,CsMg30SiO32,0.0,-6.189514199843749,-2.852293134057111
mp-1039915,NaMg30SiO32,0.0,-6.296886939999999,-2.952888636584051
mp-1039943,RbMg30SiO32,0.0,-6.2142280725,-2.875873311367187
mp-1039959,NaMg30SiO32,0.0,-6.289648044374999,-2.945649740959051
mp-1040157,LiMg30SiO32,0.0,-6.321179489375,-2.9683186533333332
mp-1040138,LiMg30SiO32,0.0,-6.315218858437499,-2.9623580223958332
mp-1040270,KMg30SiO32,0.0,-6.246891016875,-2.906179448707031
mp-1040245,KMg30SiO32,0.0,-6.25868231984375,-2.917970751675781
mp-1098474,CsMg30SiO32,0.0,-6.169219518906249,-2.831998453119611
mp-1099217,Mg14SiBO16,0.0,-6.225175880625,-2.659592565286458
mp-1098353,Mg30TiSiO32,0.16440000000000002,-6.368917097187499,-2.922516118177083
mp-1098351,Mg30TiSiO32,0.1348,-6.368189217343749,-2.921788238333333
mp-1099219,CsMg14SiO16,0.0,-5.962956673124999,-2.577730051551723
mp-1147750,La2CoSiO2,0.0,-7.110480755,-1.7227022600000002
mp-1094028,TiSiAg2O5,1.334,-7.163852554999999,-2.303131396296296
mp-1304562,Li2FeSiO5,0.0,-7.027005890000001,-2.310007001296296
mp-18860,Li2VSiO5,2.3621,-7.551173471111111,-2.7659651535185192
mp-6138,Na2TiSiO5,2.9703,-7.522812717222223,-2.9956953140102183
mp-6332,Li2TiSiO5,3.215299999999999,-7.755938045,-3.102775733333333
mp-753936,Li2FeSiO5,0.0,-7.021292982777778,-2.304294094074074
mp-755733,Li2MnSiO5,0.557399999999999,-7.253091288333333,-2.459204168288633
mp-1019584,CaAl2SiO6,4.605699999999999,-7.8892383025,-3.4282547425
mp-18882,VSiP2O9,2.7927,-8.122046250384615,-2.7472908507142852
mp-1180462,NaTi2SiO9,0.042899999999999,-7.26260610326923,-2.101862111965075
mp-1203710,Ti2Si(H2O3)3,2.8953,-7.097891059166667,-2.313504962453704
mp-1020612,Sr2Si(S2O7)4,5.0797,-6.7280529951282055,-2.100874562051282
mp-1019583,CaAl2SiO6,4.291799999999999,-7.8567799560000005,-3.395796396
mp-1019785,K2Si(S2O7)3,5.3537,-6.523330890583334,-1.975817691066666
mp-11189,Li2MgSiO4,4.7615,-6.785206179375,-2.952021454583333
mp-1176508,LiVSiO4,2.3919,-7.93358954,-2.760733684761904
mp-1180274,MnZn2SiO6,0.0746,-6.858949645,-2.179490987793103
mp-1180350,MgSi(OF)6,0.284699999999999,-5.176323209642858,-1.731561186428571
mp-1181491,CuSi(O2F3)2,0.10199999999999901,-4.72531158375,-1.3253546695833331
mp-1183017,AlTlSiO4,3.0053,-6.883110346785714,-2.406794632976191
mp-1192570,LiFeSiO4,2.8055000000000003,-7.565395185,-2.480237166904761
mp-1193158,CoSi(OF)6,0.1072,-4.921484487857143,-1.083654842857142
mp-1193358,MgSi(OF)6,0.0,-4.671804105,-1.227042081785715
mp-1198772,SiC4(NO)4,5.6012,-8.376076440769232,-1.031081440769232
mp-1199833,Cs10Tl6SiO4,0.19229999999999903,-3.331216337619048,-1.020465363645323
mp-1201156,Ca2SiO4F,0.3509,-7.186074201875,-3.293297428749999
mp-1202714,SiPHO5,5.373000000000001,-7.429351058125,-2.557380680736607
mp-1203654,La2Si(IO2)2,3.264599999999999,-7.429134458750001,-3.191667626527779
mp-1209032,SiH14(OF)6,6.2972,-5.2782099122222235,-1.791968117685185
mp-1213949,CaYSiO5,0.06630000000000001,-8.1011242015625,-3.266147397187501
mp-1265539,Li2FeSiO4,3.202099999999999,-7.2292168028125,-2.541088178645833
mp-17183,Na2BeSiO4,4.5475,-6.7619472815625,-2.806945222532327
mp-17288,Li2ZnSiO4,4.022,-6.428528692187499,-2.6416847680208333
mp-17812,Sm2SiTeO4,1.8579999999999992,-7.9948322675,-3.270127240833334
mp-17959,Nd2SiTeO4,1.7878,-8.00294385375,-3.265848502708333
mp-504605,Na2SiH16O11,4.6388,-5.447026108749999,-1.55172632000862
mp-540868,Ca3Si(ClO2)2,4.5029,-6.773943876500001,-3.2808403755
mp-541996,Pr2SiTeO4,1.7596,-8.0025192571875,-3.258592899687499
mp-556172,SiPb4(BrO)4,3.1459,-5.436005983461538,-1.850195485769229
mp-556709,Na2ZrSiO5,4.0111,-7.674705962500001,-3.075120935584291
mp-558181,NaSiBO4,5.7780000000000005,-7.660215784285715,-2.911890841506568
mp-558941,LiYSiO4,5.274999999999999,-8.207799749642856,-3.402774547261903
mp-559518,Li2FeSiO4,3.3484,-7.250385094375,-2.5622564702083332
mp-560297,LiTaSiO5,3.7928,-8.6872089303125,-3.194587247270834
mp-561110,SiPb4(ClO)4,3.5657,-5.633071449038463,-1.9821562975
mp-561474,K3LiSiO4,3.674399999999999,-5.8221231775,-2.430990501398148
mp-6109,CaTiSiO5,2.985499999999999,-8.484478519375001,-3.476201650416667
mp-643829,AlSiHO4,5.571899999999999,-7.4508242,-2.82826644017857
mp-647305,SiAg5ClO4,0.41490000000000005,-4.9218205059659095,-1.169058042178029
mp-653596,Fe4Si(CO)16,2.6229,-7.7885263302027035,-0.5957850645270261
mp-698558,SiHC3O,0.20419999999999902,-5.797423302499999,1.111650356041667
mp-704836,CaTiSiO5,1.4733,-7.4239261759375,-2.415649306979166
mp-707839,SiH14(O2F3)2,6.9932,-4.969861592,-1.600557334299999
mp-707333,Na3SiH3O5,3.8945,-5.7597103275,-2.061728268573993
mp-722246,SiH10(O2F3)2,6.5957,-5.302299718571423,-1.937921590595233
mp-726051,USiPbO6,1.785499999999999,-8.631027517777778,-3.062456279999999