Material_ID,Formula,Band_Gap,Energy_per_Atom,Formation_Energy_per_Atom
mp-2714323,Na6CaZr3Si4(SO12)2,3.3846,-7.491924054166668,-2.881222008748564
mp-2714331,Na6NbGa3Si4(SO12)2,2.2371,-6.896999628833333,-2.4978752999777303
mp-2714369,Na6TaAl3Si4(SO12)2,2.8966000000000003,-7.251832693083333,-2.754756816098563
mp-2714358,Na6TaGa3Si4(SO12)2,3.002,-6.973753609083333,-2.530488717661063
mp-2714352,Na6Ti3ZnSi4(SO12)2,1.9495,-7.245843924750001,-2.702703932081897
mp-2714402,Na6TaIn3Si4(SO12)2,2.6773,-6.915770282583334,-2.492674562098563
mp-2714476,Na6Sc3NbSi4(SO12)2,2.2025,-7.508126396,-2.861174085956897
mp-2714413,Na6La3TaSi4(SO12)2,3.0347,-7.464982497333334,-2.8786242747235633
mp-2714478,Na6MgSi4Ge3(SO12)2,1.4352,-6.718677345166667,-2.411704004498564
mp-2714454,Na6MgZr3Si4(SO12)2,3.2148,-7.452543546416667,-2.8512197476235652
mp-2714409,Na6NbIn3Si4(SO12)2,2.138,-6.844744964416667,-2.465789806498564
mp-2714416,Na6CaHf3Si4(SO12)2,3.8306,-7.6477491584166675,-2.931335482998563
mp-2714433,Na6CaSi4Sn3(SO12)2,1.2063,-6.723770454333334,-2.45342806704023
mp-2714471,Na6MgSi4Sn3(SO12)2,1.625,-6.697414214416667,-2.436450073748563
mp-2714415,Na6NbAl3Si4(SO12)2,2.090799999999999,-7.17980674275,-2.726871428331896
mp-2714420,Na6Y3NbSi4(SO12)2,2.1202,-7.528286175500001,-2.868087185831897
mp-2714467,Na6MgTi3Si4(SO12)2,1.8612000000000002,-7.332263163166667,-2.779855010373563
mp-2714506,Na6La3NbSi4(SO12)2,2.3158,-7.389683514166667,-2.8474658541235653
mp-2714516,Na6ZnSi4Ge3(SO12)2,1.2574,-6.625339268666667,-2.327634088123563
mp-2714514,Na6CaTi3Si4(SO12)2,1.8124999999999991,-7.357491204833334,-2.7957048054152303
mp-2714537,Na6Zr3ZnSi4(SO12)2,3.2893,-7.371671391833334,-2.7796157531652312
mp-2714531,Na6Hf3MgSi4(SO12)2,3.494799999999999,-7.611094324750001,-2.904058895956897
mp-2714536,Na6ZnSi4Sn3(SO12)2,1.7369999999999992,-6.61201748775,-2.360321507206897
mp-2714533,Na6Y3TaSi4(SO12)2,2.9292,-7.60133088575,-2.89699133351523
mp-2714564,Na6CaSi4Ge3(SO12)2,1.0271,-6.733042082333333,-2.41669049504023
mp-2714576,Na6Sc3TaSi4(SO12)2,2.9568000000000003,-7.5856510875000005,-2.89455821489023
mp-2714613,Na6Hf3ZnSi4(SO12)2,3.8946,-7.531081553666667,-2.833314284998565
mp-2714933,Na4LaTa3Si4(PO12)2,3.051,-8.266411211140351,-3.077280786450955
mp-2714972,Na4LaNb3Si4(PO12)2,2.260099999999999,-8.033490674298246,-2.983751499819377
mp-2714976,Na4Nb3GaSi4(PO12)2,2.512299999999999,-7.8743006442105274,-2.8747696561132363
mp-2715006,Na4ScTa3Si4(PO12)2,3.197399999999999,-8.329472778684211,-3.103593353994815
mp-2715052,Na4Ta3InSi4(PO12)2,3.1483,-8.094718014385966,-2.962872678161483
mp-2715040,Na4ScNb3Si4(PO12)2,2.3838,-8.08842204508772,-3.001933870608851
mp-2715071,Na4Ta3GaSi4(PO12)2,3.219299999999999,-8.114714550438597,-2.975792312130779
mp-2715064,Na4YTa3Si4(PO12)2,3.16,-8.330486995964913,-3.099959613512359
mp-2715097,Na4Nb3AlSi4(PO12)2,2.4063,-7.972878101228071,-2.954466065564991
mp-2715140,Na4Ta3AlSi4(PO12)2,3.184999999999999,-8.212910119649123,-3.055106833775516
mp-2715177,Na4YNb3Si4(PO12)2,2.3904,-8.09288736236842,-3.001751230126393
mp-2715541,Na2ScNb3Si4(SO12)2,1.8431000000000002,-8.063861974907407,-2.840281942761814
mp-2715538,Na2Nb3AlSi4(SO12)2,1.7821,-7.941990454444444,-2.790268568826629
mp-2715549,Na8ZnSi4Ge3(PO12)2,1.987299999999999,-6.728761532936509,-2.511002564015561
mp-2715550,Na8Hf3ZnSi4(PO12)2,3.7019,-7.582689697619048,-2.9839192161981
mp-2715567,Na8MgSi4Ge3(PO12)2,2.209199999999999,-6.814329049444445,-2.587743261356831
mp-2715573,Na8CaTi3Si4(PO12)2,2.179799999999999,-7.408256532142857,-2.938991640483814
mp-2715579,Na2Nb3InSi4(SO12)2,1.9734,-7.81526518212963,-2.690943354474777
mp-2715596,Na8Hf3MgSi4(PO12)2,4.062799999999999,-7.665893353174604,-3.058296052586989
mp-2715600,Na2LaNb3Si4(SO12)2,1.9583,-8.012753308055556,-2.827963887021073
mp-2715609,Na2YTa3Si4(SO12)2,2.4583,-8.309436544722223,-2.933815126382184
mp-2715620,Na8La3NbSi4(PO12)2,2.4671,-7.429210323492064,-2.978582326475878
mp-2715648,Na8TaIn3Si4(PO12)2,3.2511,-7.00054659436508,-2.663368063594926
mp-2715649,Na2Ta3GaSi4(SO12)2,2.6096,-8.084090935555556,-2.805163836034961
mp-2715668,Na2Ta3InSi4(SO12)2,0.9602,-8.061302204351852,-2.789845168141443
mp-2715666,Na2ScTa3Si4(SO12)2,2.3967,-8.307645428611112,-2.936930187909962
mp-2715678,Na8Sc3TaSi4(PO12)2,3.1696,-7.633845478333334,-3.041431564586989
mp-2715680,Na8Sc3NbSi4(PO12)2,2.3183,-7.562099787698413,-3.011724504967941
mp-2715685,Na8CaZr3Si4(PO12)2,3.7482,-7.537684843730159,-3.021833622547307
mp-2715696,Na2Ta3AlSi4(SO12)2,2.4518,-8.190042827962962,-2.89118573378959
mp-2715697,Na2YNb3Si4(SO12)2,1.917,-8.068403369351852,-2.83991715956737
mp-2715698,Na2Nb3GaSi4(SO12)2,1.9403000000000001,-7.8385992789814845,-2.7068073880164443
mp-2715700,Na8Ti3ZnSi4(PO12)2,2.0905,-7.30578248452381,-2.8542760754838152
mp-2715800,Na8CaSi4Sn3(PO12)2,2.2285,-6.822323013492063,-2.630623847666354
mp-2715718,Na8CaHf3Si4(PO12)2,4.0714,-7.6939261778571435,-3.077397213817147
mp-2715752,Na8Y3NbSi4(PO12)2,2.4175,-7.5710403742063495,-3.008049206118735
mp-2715774,Na8MgSi4Sn3(PO12)2,2.5246,-6.800806096904762,-2.6180385945314333
mp-2716169,Na8Y3TaSi4(PO12)2,3.3631,-7.644094436507937,-3.039064637404449
mp-2716176,Na8Zr3ZnSi4(PO12)2,3.5845000000000002,-7.427831423809525,-2.9297386852457192
mp-2715806,Na2LaTa3Si4(SO12)2,2.396099999999999,-8.249870134074074,-2.9179455044840372
mp-2716147,Na8TaAl3Si4(PO12)2,3.177899999999999,-7.325613803095238,-2.9179779804203223
mp-2716156,Na8NbAl3Si4(PO12)2,2.1466,-7.251207401428572,-2.885610209769529
mp-2716163,Na8La3TaSi4(PO12)2,3.3467000000000002,-7.4996923265873034,-3.007025698555244
mp-2716143,Na8CaSi4Ge3(PO12)2,2.014199999999999,-6.825495094444444,-2.58997764290445
mp-2716155,Na8ZnSi4Sn3(PO12)2,2.1359999999999992,-6.715156674126985,-2.541215990920323
mp-2716241,Na8NbGa3Si4(PO12)2,2.4301999999999992,-6.982642409285714,-2.668293775305243
mp-2716255,Na8TaGa3Si4(PO12)2,3.1776,-7.052078191984128,-2.6956909269877842
mp-2716237,Na8MgZr3Si4(PO12)2,3.5269999999999992,-7.503568642539683,-2.996649084809212
mp-2716213,Na8MgTi3Si4(PO12)2,2.2329,-7.390331071269841,-2.929997843063179
mp-2716246,Na8NbIn3Si4(PO12)2,2.5101,-6.927833462936508,-2.632693563182227
mp-1211355,KLiAl2Si4(O5F)2,0.0,-7.217535208000001,-2.940533649529168
mp-561491,KNaMg2Si4(O5F)2,5.2111,-7.257832491500001,-3.220701618931466
mp-720245,CsKNaLi13(SiO4)4,4.0858,-6.129302772361111,-2.544144062961606
mp-728512,Ca4Ce2TiSi4(BO6)4,1.2601,-8.356547587435898,-3.357529777179488
mp-684991,NaCaScZn(SiO3)4,4.729,-7.776271589249999,-3.175454711568965
mp-1196440,ZnSi4H35C13ClO,3.7616,-5.122696798090909,-0.23976970438636402
mp-1210891,Na3Ti2Mn3Si4(O8F)2,0.006099999999999,-8.013740852166668,-2.94712267898659
mp-557538,Na2Gd2MgSi4(O6F)2,3.4316,-8.494455906956523,-3.391383516424289
mp-1205129,Na3LiTi2Si4(HO4)4,3.5603,-7.2592639875,-2.720117881137931
mp-1210426,Na4Ca4Ti4Si4O22F3,0.0,-7.597124771463415,-3.175924233508551
mp-1228510,Ba2Sr3CaMg2(SiO4)4,4.747299999999999,-7.4797147471428564,-3.370771094999999
mp-557227,KCa12Si4S2O26F,4.2813,-7.274654704782608,-3.23688518211413
mp-1204491,Ca2MnAl2Si4BO16,0.0,-8.082929179807692,-3.151682768926834
mp-1227867,Ca2MnFeSi4(HO3)5,1.7123,-7.371257715535714,-2.56626644229218
mp-1263007,Ca2MnFeSi4(HO3)5,1.162599999999999,-6.982542865357144,-2.177551592113609
mp-1248208,Na3Ca3Zr2Si4(O5F)3,3.0164,-7.150631416333334,-2.8573111644712643
mp-534953,Ca4Ti3AlSi4O19F,2.975799999999999,-8.27597204234375,-3.492195948906249
mp-705559,Na3Ca3Zr2Si4(O5F)3,3.075699999999999,-7.135351307666666,-2.842031055804598
mp-726800,Mn4Si4SnB2(HO9)2,2.7959,-8.145624584193548,-2.61106588572766
mp-721172,Ca2MnFeSi4(HO3)5,0.971299999999999,-6.923666736785714,-2.11867546354218
mp-727393,Ca2MnAl2Si4BO15,1.1151,-8.0179731872,-3.087395360083908
mp-734098,Ca2Al2FeSi4BO16,1.0825,-8.036987766346154,-3.132356512467948
mp-735824,KLi2AlSi4(O5F)2,0.8465,-6.4957604242,-2.310591513895833
mp-695670,NaCa3MgFe(Si2O7)2,0.257899999999999,-7.223564162291666,-2.705575085890803
mp-1173823,NaCaAlFe(SiO3)4,3.4003,-7.9103916395,-3.078405545568965
mp-1200353,Cs4K3U3Si4O20F,2.1139,-7.837854757857144,-3.167152070010592
mp-1211154,Na3Ca4TiSi4(O8F)2,0.0,-7.229491702666666,-3.074844808582376
mp-1210862,Na2Ca5TiSi4(O8F)2,0.0,-7.406089556833334,-3.229313359369732
mp-1173694,NaCaMgCr(SiO3)4,3.029299999999999,-7.694686315333333,-2.909304199152298
mp-1221077,NaCaMgCr(SiO3)4,3.5919,-7.90528830575,-3.119906189568965
mp-1221076,NaCaScZn(SiO3)4,4.5618,-7.775837597500001,-3.175020719818966
mp-1173750,NaCaAlFe(SiO3)4,3.222699999999999,-7.9036986266666664,-3.071712532735632
mp-1221075,NaCaMgFe(SiO3)4,2.9279,-7.763334734874999,-3.037103931693965
mp-1221089,NaCaMgAl(SiO3)4,5.0296,-7.7381459615,-3.248137427318965
mp-534889,NaCaMgCr(SiO3)4,3.046,-7.900375737833333,-3.114993621652298
mp-1197419,Rb6NaU3Si4O20F,2.147399999999999,-7.837191350714285,-3.160805641039408
mp-1228542,Ba2Sr3CaMg2(SiO4)4,4.755699999999999,-7.4794847296428575,-3.370541077499999
mp-1222235,Mg3Al12FeSi4(BO9)4,3.7922000000000002,-7.998920365166667,-3.251357421861111
mp-1195132,Si4MoH36C12(NO)2,3.6819,-5.4552237083333335,-0.33084866561403503
mp-559586,BaNa2Nd2Si4CO15,4.8225999999999996,-7.951526651,-3.180004089010345
mp-720719,Ca2Y2Si4H2CO16,5.429,-8.091077243888888,-3.131187268703704
mp-1256265,NaCaMgAl(SiO3)4,2.211699999999999,-7.471736163999999,-2.9817276298189643
mp-720244,NaCaMgAl(SiO3)4,2.5874,-7.44470013575,-2.954691601568965
mp-1227954,CaMn25FeSi4SbO44,0.0177,-8.58515746618421,-2.229018506029946
mp-23151,Na4BeAlSi4ClO12,4.6344,-7.167532858695653,-3.00330622176162
mp-1201527,Cu4Si4Pb4C4ClO28,0.0,-6.906849133333334,-1.7900759366666672
mp-17718,CsKNa2Li12(SiO4)4,4.872199999999999,-6.186865958055555,-2.617462862212883
mp-42508,Na4BeAlSi4ClO12,4.276599999999999,-7.121244563913043,-2.9570179269790113
mp-1221508,Na11TiNb2Si4P2O25F,2.5924,-7.22409454,-2.854483076256336
mp-1223630,KBaNa2Ti3Fe(Si2O9)2,2.650699999999999,-8.039746028333333,-3.084584238666954
mp-561052,Ba4Na2CaTi3Si4(SO13)2,2.1206,-7.758176565,-3.123024311851396
mp-1200090,Na7TiNb2Si4P2O29F,0.27980000000000005,-7.011534165652174,-2.32833659526683
mp-1210416,Na4CaZr2TiSi4(O8F)2,3.3247,-7.862976189666667,-3.294318548961685
mp-1210325,Na4Zr2TiMnSi4(O8F)2,2.4338,-7.993278715333333,-3.186073894226053
mp-1210688,Na11TiNb2Si4P2(O12F)2,0.0,-7.161270924130434,-2.8576183436476392
mp-1210816,Na2Ca4YZrSi4(O5F)3,4.6913,-7.759528508666666,-3.512032591091954
mp-24392,Ca2Al2FeSi4BHO16,1.785299999999999,-7.953811687222221,-3.105086537608023
mp-1221911,Na2Ca4ZrNbSi4O17F,1.851399999999999,-7.859254164833333,-3.289743887258619
mp-1210786,Na2Ca4ZrNbSi4(O8F)2,0.6702,-7.821191639166667,-3.352818315925288
mp-6903,Na2Ca4ZrNbSi4O17F,4.0396,-7.931898680833332,-3.362388403258619
mp-1221915,Na2Ca2Zr2MnFeSi4O17F,1.7381000000000002,-8.097847192,-3.126095836689654
mp-1179651,Si5O8,3.4528,-7.8492721923076925,-2.7177123315384613
mp-760116,Fe31Si5O48,1.120499999999999,-8.143999432738095,-1.8678163863095252
mp-1235571,Li(SiO2)5,0.0,-7.8468768875000015,-2.9396816958333343
mp-1233759,Ca(SiO2)5,0.9177000000000001,-7.8319593093750015,-2.918721804375001
mp-1233794,Mg(SiO2)5,2.313799999999999,-7.83448323375,-2.9446913453125
mp-29223,Ba3Si5O13,4.742100000000001,-7.9976380603571435,-3.368732915833334
mp-3273,Si5P6O25,5.6022,-7.963962052777778,-2.8717827075793663
mp-1199408,TiSi5O13,0.0824,-8.22384838131579,-2.995133895438598
mp-1201442,Tl4Si5O12,3.1736,-7.207333865476189,-2.636476214206348
mp-1351269,Mn4(SiO3)5,0.398,-8.492816393958334,-2.743063627571839
mp-1236342,Li(SiO2)5,0.0,-7.689834779375,-2.782639587708334
mp-28663,Mg14Si5O24,4.9498999999999995,-7.083230718139535,-3.159876427906976
mp-1019570,Ca8Si5O18,4.7787,-7.732489513064516,-3.466854439516129
mp-684265,Mg2Al4Si5O18,4.3458,-7.942808220000001,-3.307182992758622
mp-756771,Li2Si5Ni5O16,2.982999999999999,-7.334999081071428,-2.370267103809523
mp-765986,Li2Mn5Si5O16,2.413499999999999,-8.28691969,-2.71828081772578
mp-767707,Li2Fe5Si5O16,2.3446,-7.979083628214285,-2.534015127738095
mp-1019546,BaY4Si5O17,4.9928,-8.77231484462963,-3.6168604677777783
mp-1195598,BaEr4Si5O17,4.782,-8.519711249814815,-3.651867641851852
mp-1195686,BaHo4Si5O17,4.770399999999999,-8.514845326481481,-3.642563102962962
mp-1198043,SrSc4Si5O17,4.3818,-8.694679476111112,-3.573782004074075
mp-560603,Na2MgSi5O12,5.018599999999999,-7.59108176125,-3.050280072137931
mp-667292,K2MgSi5O12,4.7841000000000005,-7.637833107375,-3.11806652385
mp-1221383,Na2MgSi5O12,4.8435,-7.519916860875,-2.979115171762931
mp-1222909,Li2MgSi5O12,5.1591000000000005,-7.635103934125,-3.037582036208333
mp-1203161,Ca10Si5(ClO10)2,0.5481,-7.32601381,-3.2763142864864863
mp-1223370,La8Si5N14O,2.3602,-8.421011535714287,-1.69606523482143
mp-558800,CaMn4(SiO3)5,3.2266,-8.52714407960003,-2.927157428668995
mp-560247,Li2Ca2Si5O13,4.9381,-7.7502692370454564,-3.237581568484849
mp-757523,Li2Fe2Si5O13,3.5372,-7.924406307727273,-2.824043972803032
mp-757404,Li2Cu2Si5O13,0.625,-7.3653526,-2.662337041439395
mp-757482,Li2Mn2Si5O13,3.4408,-8.097443340227272,-2.934172452387669
mp-758237,Li2Cr2Si5O13,2.957,-8.117974887272727,-2.9100647105303032
mp-758036,Li2V2Si5O13,2.5017,-8.082637946136362,-2.926467896666666
mp-818683,Ca2Fe2(SiO3)5,1.105499999999999,-8.058593878958334,-2.962875237083333
mp-859789,Li2Si5Ni2O13,3.6093,-7.599176417045455,-2.74334903939394
mp-1198152,Al13Si5ClO38,0.0,-7.221920818070176,-2.560690453333333
mp-1211911,K2Si5BO12,0.0,-7.71365517275,-2.9414425014333343
mp-1223419,KSi5BO13,0.31980000000000003,-7.837943008250001,-2.8749007728208342
mp-1227666,Ca4Mn6Si5O28,0.0,-7.677688731627908,-2.359921532502005
mp-883454,Li2Fe5Si5O16,3.1753,-7.949523542857142,-2.5044550423809513
mp-1221161,Na4Si5Sn2O17,0.3552,-7.062968998035714,-2.6119706387684722
mp-1228558,AlSi5(CO6)2,0.0,-7.806316712,-2.371065260750001
mp-1207796,Y3Si5N9O,2.5775,-8.775539209305556,-1.739632244861111
mp-1019610,Cs2MgSi5O12,4.9135,-7.634932970687499,-3.1375056024030172
mp-1020860,Rb2MgSi5O12,4.7822,-7.632875443624999,-3.128192425124999
mp-1080284,Rb2MgSi5O12,4.1838,-7.6162621175,-3.111579099
mp-1195883,Rb2MnSi5O12,3.1728,-7.8956089554375,-3.014348673084052
mp-1195212,Rb2Si5NiO12,3.8268,-7.609586017124999,-2.897419665374999
mp-1196579,Cs2CuSi5O12,0.19160000000000002,-7.487898339062499,-2.867034138028017
mp-1214991,Cs2ZnSi5O12,4.2057,-7.477273511750001,-2.998382463715518
mp-15125,Rb2CdSi5O12,4.1094,-7.4183208941875,-2.947160866937499
mp-15126,Cs2MnSi5O12,2.4585,-7.8972174091875,-3.023212777049569
mp-19477,Mn2Al4Si5O18,4.030900000000001,-8.334030324827586,-3.178988181926279
mp-6174,Mg2Al4Si5O18,4.9555,-7.966579281379311,-3.330954054137932
mp-1204107,Al4Fe2Si5O18,3.862699999999999,-8.211965266206898,-3.104646853103449
mp-1212247,K3Si5H2O11,0.000699999999999,-6.8770610733333335,-2.508556156630951
mp-1226440,CsAlSi5O12,4.5621,-8.039416355263157,-3.241749217876588
mp-1173192,SrAl7Tl5Si5O24,1.7681,-7.289703043690475,-2.86954890670635
mp-1173490,Sm4AlSi5(NO)7,1.320999999999999,-7.889480598750001,-1.941556358333335
mp-1173412,Pr4AlSi5(NO)7,3.1192,-8.43659666125,-2.475858200277779
mp-1218436,SrAlSi5N7O2,3.577199999999999,-8.082112231250001,-1.780333462812501
mp-1227994,BaAlSi5N7O2,4.015899999999999,-8.12046140375,-1.8045234571875
mp-1249065,Nd4AlSi5(NO)7,0.8365,-7.993495076250001,-2.037310619583334
mp-2713385,Na2Ta4Si5SO24,2.8703000000000003,-8.62982471277778,-3.069625669294222
mp-2713479,Na2Nb4Si5SO24,2.2074,-8.295069921111113,-2.931051155701629
mp-2713849,Na6Zr4Si5SO24,4.1334,-7.852915925166667,-3.046487399436064
mp-2713875,Na6Si5Sn4SO24,2.7138,-6.851192717416667,-2.498577069186063
mp-2713879,Na6Hf4Si5SO24,4.3135,-8.0677661315,-3.120388765769397
mp-2713908,Na6Ti4Si5SO24,2.615,-7.685127607666668,-2.943919943269397
mp-2713951,Na6Si5Ge4SO24,2.8337,-6.881180683083333,-2.46721943485273
mp-2714349,Na3Ta4Si5PO24,3.7841,-8.632562372612613,-3.151859661750833
mp-2714403,Na7Hf4Si5PO24,4.3705,-8.084464675447155,-3.193881032381253
mp-2714321,Na3Nb4Si5PO24,2.9222,-8.30244923954955,-3.012624637084165
mp-2714434,Na7Zr4Si5PO24,4.3369,-7.874299005284553,-3.121226425633286
mp-2714527,Na7Ti4Si5PO24,2.6959,-7.702859706097562,-3.01341723506418
mp-2714618,Na7Si5Ge4PO24,3.201,-6.9310802972357735,-2.560902622462555
mp-2714591,Na7Si5Sn4PO24,3.0206,-6.902289492601627,-2.591961183682066
mp-2714947,Na10In8Si5S7O48,2.3139,-6.445176656837607,-2.226101873563587
mp-2714991,Na10Al8Si5S7O48,4.1076,-6.904533991239316,-2.584289763178972
mp-2714993,Na10Sc8Si5S7O48,3.654,-7.363335034700856,-2.7777684194610233
mp-2715068,Na10La8Si5S7O48,3.5219,-7.22390803363248,-2.7815682901875203
mp-2715069,Na10Ga8Si5S7O48,2.9758,-6.513427189017095,-2.266770633520853
mp-2715116,Na10Y8Si5S7O48,3.6577,-7.398209997905983,-2.7945282652302543
mp-2716144,Na2Ti8Si5S7O48,1.3434,-7.844999497714286,-2.710076454098932
mp-2716122,Na2Zr8Si5S7O48,2.3912,-8.046750212619049,-2.837289041765601
mp-2716151,Na2Hf8Si5S7O48,3.0906000000000002,-8.281594882714286,-2.911049323289409
mp-2716192,Na2Si5Ge8S7O48,1.4701,-6.8735706404285715,-2.112643501003695
mp-2716233,Na2Si5Sn8S7O48,1.381599999999999,-6.8503138256190494,-2.159495943337027
mp-42036,Nd6Al7Si5N3O25,3.378,-8.310995515,-3.296465864673912
mp-677001,SrAl7Tl5Si5O24,0.0128,-7.21462509452381,-2.794470957539684
mp-677042,Na7Zr4Si5PO24,4.4483,-7.881679967317073,-3.128607387665805
mp-677121,KBaAl3Si5O16,4.7146,-7.97785547076923,-3.340123225278845
mp-677612,Nd4AlSi5(NO)7,1.316,-7.98471516763889,-2.028530710972223
mp-681911,Sm4AlSi5(NO)7,1.539699999999999,-7.864672324583334,-1.916748084166667
mp-686280,Nd4AlSi5(NO)7,1.620099999999999,-7.839966099861112,-1.8837816431944452
mp-695427,Na13Zr7Si5P7O48,3.7962,-7.774082138999999,-3.026415794005387
mp-695390,Na13Zr7Si5P7O48,3.7281,-7.7836393,-3.035972955005388
mp-697305,K2Na5Al7Si5O24,2.2955,-7.211006865930233,-3.000122484102245
mp-725514,Na13Zr7Si5P7O48,0.0,-4.7945658541250005,-0.046899509130388005
mp-726223,Na13Zr7Si5P7O48,0.0,-4.422499162875,0.32516718211961104
mp-744914,Ca8MgAl6Si5O28,2.9092000000000002,-7.342799805833333,-3.054920174062498
mp-1201904,KNaSi5SnO16,0.0,-6.9088689216666666,-2.209842730567887
mp-1182751,CaMnBe2Si5O17,0.022599999999999003,-7.467242150384616,-2.4715356835742712
mp-729576,Mn6VSi5HO19,0.7677,-8.533102208125,-2.6396955360573813
mp-1195724,CaMn3Zn(SiO3)5,2.8848000000000003,-8.1843651216,-2.900469337951724
mp-695983,Ca2Fe2Si5HO15,1.882099999999999,-7.953429988600001,-2.925733434849999
mp-532768,YZr5Si5PO24,3.9423,-9.101822275972221,-3.531246652490079
mp-706657,Al13Si5H18ClO38,4.3438,-6.955234493466666,-2.597859470966665
mp-1173524,Nd3AlSi5N10O,2.898299999999999,-8.290637425,-1.615270088375
mp-1196362,Si5H15C4NO12,5.213,-6.497463436621621,-1.560096990506756
mp-1221671,Na2Cu2Si5(H3O8)2,0.657199999999999,-6.676821458064516,-2.239827272266407
mp-677482,LaAl2Si5N9O,2.133299999999999,-8.123498094722223,-1.4820420044444451
mp-706268,BaAlSi5N7O2,1.533,-7.390043739375,-1.0741057928125
mp-695285,SrAlSi5N7O2,1.807599999999999,-7.0808660265625,-0.779087258125001
mp-2713066,Na14Zn4In4Si5S7O48,2.1127,-6.2168357549187,-2.211262636912321
mp-2713040,Na14La4Mg4Si5S7O48,3.320299999999999,-6.739407421504066,-2.609563095367606
mp-2713068,Na14Mg6Si5Sn2S7O48,0.6936,-6.43224732593496,-2.405621837359476
mp-2713086,Na14Ca4La4Si5S7O48,3.278299999999999,-6.818490872479675,-2.670347528538338
mp-2713463,Na2Ta2Nb2Si5SO24,2.196799999999999,-8.464948680185186,-3.002839775738666
mp-2713735,Na6Ta2In2Si5SO24,3.009299999999999,-7.408703220666667,-2.725739693636064
mp-2713760,Na6La2Ta2Si5SO24,2.9879,-7.748707967333334,-2.9569027722193972
mp-2713762,Na6Nb2In2Si5SO24,2.3344,-7.261910825,-2.66722842310273
mp-2713777,Na6Si5Sn2Ge2SO24,2.6976,-6.85867946875,-2.475391020519397
mp-2713804,Na6Zr2Si5Sn2SO24,3.0236,-7.3560476725,-2.776525585519397
mp-2713809,Na6Hf2Zr2Si5SO24,4.1906,-7.9603380375,-3.0834350917693962
mp-2713793,Na6Ta2Ga2Si5SO24,3.0787,-7.449518954166667,-2.75310931317773
mp-2713778,Na6Ta2Al2Si5SO24,3.0233,-7.636367889333333,-2.904084257969396
mp-2713835,Na6Y2Ta2Si5SO24,2.9969,-7.854462357166667,-2.98400294230273
mp-2713838,Na6La2Nb2Si5SO24,2.1433,-7.600548313833333,-2.89702424385273