Material_ID,Formula,Band_Gap,Energy_per_Atom,Formation_Energy_per_Atom
mp-1223631,KMg3AlSi3O11F,0.0,-7.254807918500001,-3.1355212626125
mp-2712551,Na9Mg5TaSi3(SO6)6,2.3581,-6.671848589583334,-2.4830573845791193
mp-2712561,Na9TaZn5Si3(SO6)6,2.5331,-6.377978518250001,-2.220081180329119
mp-2712562,Na6Mg2Ta4Si3(PO6)6,2.764099999999999,-7.970539004912282,-2.958708017288883
mp-2712587,Na9Mg5NbSi3(SO6)6,1.5553,-6.6236562514166675,-2.464292088123563
mp-2712600,Na9NbZn5Si3(SO6)6,1.728299999999999,-6.32901728925,-2.20054699304023
mp-2712611,Na6Ta4Zn2Si3(PO6)6,2.7038,-7.842326122456141,-2.843503078867831
mp-2712666,Na6Nb4Zn2Si3(PO6)6,1.9036,-7.629356884298246,-2.754437174230404
mp-2712705,Na6Ca2Ta4Si3(PO6)6,2.685699999999999,-7.999597993596492,-2.974604554569585
mp-2712644,Na6Ca2Nb4Si3(PO6)6,2.107,-7.796358613157896,-2.895268507651457
mp-2712711,Na6Mg2Nb4Si3(PO6)6,1.965999999999999,-7.759803237017544,-2.871875582914614
mp-2712768,Na9Ca5NbSi3(SO6)6,1.6536,-6.754298939500001,-2.563673954123564
mp-2712788,Na9Ca5TaSi3(SO6)6,2.533,-6.804548707250001,-2.584496680162453
mp-43068,Na3Al3Si3AgBrO12,3.3352999999999993,-7.07951819173913,-2.931985140034982
mp-1227900,BaLiMg2AlSi3(O5F)2,0.0,-7.3751695245,-3.354285396666667
mp-1223617,KMg2AlFeSi3(HO6)2,3.0954,-7.310212714431818,-2.807952449875
mp-1195311,CaLaMgAl2Si3HO13,4.446700000000001,-7.867206048409091,-3.319122309602274
mp-1199669,ZnSi3GeH35C13ClO,3.5833,-5.109358279545455,-0.24101827993181701
mp-1200564,ZnSi3GeH35C13BrO,3.4324,-5.098828179272728,-0.23433527284090802
mp-1179275,Si4O9,0.0,-7.867459984807693,-2.7726198951923093
mp-627944,Si4H2O9,5.171,-7.678580081833334,-2.8103631456666682
mp-696839,Fe(Si2O3)2,0.0,-7.008160767272727,-1.566428098181818
mp-744274,Fe(Si2O3)2,0.0,-7.37554208,-1.933809410909091
mp-1196756,NbSi4O13,0.149599999999999,-7.787452517222222,-2.4471152825
mp-985637,Li2Si4O7,3.0641,-7.171599828846154,-2.544304068205128
mp-1189710,Mg3Si4O13,0.0,-7.243592754500002,-2.697783993000001
mp-1209673,Si4CO13,1.077,-6.966477529444444,-1.674620269583333
mp-1211034,Mg2Si4O11,0.0,-7.571581365294117,-2.901594117941176
mp-1199927,Ba5(Si2O7)2,0.30800000000000005,-7.498340106304347,-3.125835719782608
mp-1043424,Si4BiO10,0.0826,-7.767227573166667,-2.762499807833334
mp-1043403,Si4SnO10,2.968,-7.858473615666667,-2.845776680666667
mp-1043652,V(Si2O5)2,2.4305,-8.303346778500002,-2.9523608958333343
mp-1043700,Fe(Si2O5)2,1.182,-8.037647910166667,-2.727587684833334
mp-1043406,Ti(Si2O5)2,2.401,-8.406900012833335,-3.135141733722222
mp-1142841,Cr(Si2O5)2,0.014899999999999,-8.209475037166666,-2.8205463945
mp-1043698,Si4MoO10,0.019999999999999,-8.285586023333334,-2.817150538
mp-1043760,Si4WO10,0.025399999999999003,-8.429080491333334,-2.819812998
mp-1043416,Si4SbO10,0.277599999999999,-7.830091248333334,-2.809432354333334
mp-1043669,Co(Si2O5)2,1.0491,-7.907739454,-2.686786194666666
mp-1043728,Mn(Si2O5)2,0.0,-8.153047061333334,-2.796853897195403
mp-1325790,Si4NiO10,0.0,-7.695143851,-2.564409260999999
mp-1197365,Fe7(SiO4)4,1.925999999999999,-8.25665066074074,-2.324843376666666
mp-1201956,Cd4Si4O9,0.0,-6.077853556764706,-1.9559146200000002
mp-662605,Na2Si4O9,4.6373999999999995,-7.581789153,-2.9873649715172412
mp-1202598,NaSi4O13,0.0,-6.650800731805556,-1.797107067159962
mp-1200396,Mg3(SiO3)4,0.10220000000000001,-7.48419061736842,-2.9595477634210523
mp-627632,Si4H2O9,5.1538,-7.694972340666667,-2.826755404500001
mp-8380,K2Si4O9,4.6302,-7.599885526333334,-3.0335081523
mp-9478,BaSi4O9,4.3452,-8.156603618214286,-3.288611039285715
mp-1211221,KSi4O9,0.5781000000000001,-7.669061572857144,-2.857326509446429
mp-1210633,Mg3(SiO3)4,9.999999999998901e-05,-7.473881556315789,-2.949238702368421
mp-1369374,Si4Ag10O13,0.005399999999999,-4.5411049411111115,-0.30206264598765303
mp-1643677,Mn5(Si2O7)2,0.32030000000000003,-8.587324779782609,-2.64024640368066
mp-25205,Cu5(Si2O7)2,0.0,-6.862918424782609,-2.016450618695651
mp-558603,K2Si4O9,4.4376,-7.630625236000001,-3.064247861966668
mp-651688,Si4Ag10O13,0.273099999999999,-5.812425828518519,-1.5733835333950612
mp-707135,Al2Si4O11,4.1738,-8.203792968823528,-3.284969743235293
mp-757245,Cr5(Si2O7)2,0.7892999999999991,-8.686435409130434,-2.632610907391303
mp-757122,Mn5(Si2O7)2,0.0,-8.561734629130434,-2.6146562530284863
mp-766894,V4Si4O13,0.658799999999999,-8.644524544761904,-2.817839332142857
mp-766688,Mn4Si4O13,0.0,-8.522194391428572,-2.680631231748769
mp-768078,Cr4Si4O13,1.417599999999999,-8.662150609285714,-2.727057510952381
mp-768088,Mn2Si4O11,0.0,-8.366072862058823,-2.810021464462474
mp-779017,Cr(Si2O5)2,1.8238999999999992,-8.319523028,-2.9305943853333343
mp-802343,Cr5(Si2O7)2,0.0,-6.753050418695652,-0.699225916956521
mp-861633,V2Si4O11,1.4363000000000001,-7.602513805588235,-2.055651728235294
mp-867855,V2Si4O11,0.380399999999999,-8.505843914411765,-2.958981837058824
mp-988484,Si4Ag10O13,0.0,-0.44353679018518505,3.795505504938272
mp-1219427,Si4Pb2O11,0.4272,-7.503479598970588,-2.588530345147058
mp-737304,Mn9(Si2O9)2,0.0,-8.725896261129032,-2.492905685689655
mp-627867,Si4H2O9,3.9049,-7.564714328666668,-2.6964973925000013
mp-1222121,Mg7(SiO4)4,0.0,-7.142416837037037,-2.9838265294444453
mp-731836,Al(Si2O5)2,0.009300000000000001,-8.098033136,-3.102935936
mp-1200185,Cu5(Si2O7)2,0.0,-6.879769017065217,-2.033301210978261
mp-1204432,Cu5(Si2O7)2,0.0,-6.834336468913044,-1.9878686628260862
mp-1043826,Si4NiO10,0.0,-7.679482860666667,-2.548748270666666
mp-1222180,Mg3Si4O13,0.048699999999999,-7.2424098345,-2.696601073000001
mp-1200846,Mg3(SiO3)4,0.0766,-7.486002389210527,-2.961359535263158
mp-1211907,Mg5Cr(Si2O9)2,0.0,-7.16009827375,-2.5683137110714283
mp-1222886,Li2Al2Si4O13,0.30160000000000003,-7.589200185714287,-2.9542591105555562
mp-1225211,Fe11Si4(H4O9)3,0.2893,-6.851773090185185,-1.496061056296297
mp-2230491,MgCo2(SiO3)4,1.180699999999999,-7.732995787368422,-2.629095385526317
mp-759075,Li9Fe4(SiO5)4,0.0,-6.962425858108108,-2.321320915945945
mp-780620,LiCr(Si2O5)2,2.1384,-8.1348496996875,-2.963421418020833
mp-1204561,Sr3TiSi4O15,0.40740000000000004,-7.686597097391305,-2.9520986851449282
mp-1262892,Li2Cu(Si2O5)2,0.9597000000000001,-7.439154371911765,-2.786334691127451
mp-558998,K2Cu(Si2O5)2,2.686699999999999,-7.374044366617648,-2.812701526294119
mp-560339,Ca2Zr(SiO3)4,4.8495,-8.377353366578948,-3.449158389210526
mp-731872,MnAl6Si4O19,0.5516000000000001,-8.042723000333334,-3.131122950764367
mp-734012,K2LuSi4O11,0.5249,-7.736434957638888,-3.130142175759259
mp-757865,Li2Co(Si2O5)2,2.466299999999999,-7.623126770294118,-2.791824145392158
mp-759584,Li2Fe(Si2O5)2,3.3105,-7.768975182647058,-2.859048764215686
mp-758261,Li2Cr(Si2O5)2,2.8725,-7.897072404558823,-2.9175562061274523
mp-849775,Li2Cu(Si2O5)2,0.885699999999999,-7.409755133529412,-2.756935452745098
mp-555508,Ca11Si4SO18,3.5249,-7.396505798529411,-3.368137314485293
mp-1191515,Ca2Mn2Si4O17,0.0,-7.431248377199999,-2.305174795234482
mp-1192638,Cs4U3Si4O17,0.023500000000000004,-8.375374818214286,-3.256705192629312
mp-1211275,KMg3(SiO3)4,1.134699999999999,-7.3972705515,-3.0422913541125
mp-1220870,Na6Zr2Si4O17,0.0,-7.185735087931034,-2.669792497009513
mp-1222632,MgAlSi4O15,0.0,-6.817158809761904,-1.9935048554761892
mp-1229042,Al9Fe2(SiO6)4,0.20900000000000002,-8.045403873076923,-3.145338203076923
mp-17712,Pr4V5(Si2O11)2,0.0,-8.760149435714284,-3.184211423904761
mp-16891,Nd4V5(Si2O11)2,0.0,-8.779365639142856,-3.206550373142856
mp-19030,La4V5(Si2O11)2,0.355799999999999,-8.833337256285715,-3.241338027714286
mp-541464,La4Mn5(Si2O11)2,1.0118,-8.638534210285714,-3.035376521418719
mp-558553,Sr4Ti5(Si2O11)2,1.9364000000000001,-8.51993793142857,-3.4684068836190463
mp-559176,La4Ti5(Si2O11)2,0.0,-8.963881188857142,-3.541655396476189
mp-560771,La4Ti9(Si2O15)2,0.0,-9.089505724468085,-3.5375151108510643
mp-562731,La4Ti9(Si2O15)2,0.0,-9.08970707212766,-3.537716458510639
mp-603241,BaFe(Si2O5)2,3.4808,-8.1902115409375,-3.092094145937501
mp-1214645,Ba4Ti6Si4O25,0.0,-8.45553967,-3.315817898076923
mp-6442,LiAl(Si2O5)2,5.4223,-8.0459706515625,-3.243759347395833
mp-757716,LiTi(Si2O5)2,0.391899999999999,-8.2051365953125,-3.143555529479166
mp-765576,LiSi4NiO10,1.5203,-7.713032844375,-2.783661487083334
mp-857353,LiFe(Si2O5)2,3.3411,-8.037623013125,-2.940133872708333
mp-1043306,MgCu(Si2O5)2,1.1248,-7.6996870121875,-2.892777083749999
mp-1043411,CaSi4SnO10,3.3799,-7.8966021364062495,-3.07184876734375
mp-1043525,MgMn(Si2O5)2,3.0903,-8.1682228025,-3.04488733518319
mp-1043375,MgSi4SnO10,2.4662,-7.76523153453125,-2.96392378203125
mp-1043509,ZnCo(Si2O5)2,2.7874,-7.72219416671875,-2.74881651046875
mp-1043523,MnZn(Si2O5)2,3.0012,-7.96720983265625,-2.86704476565194
mp-1043537,ZnFe(Si2O5)2,3.4437,-7.86181724859375,-2.80490181171875
mp-1043372,MgTi(Si2O5)2,0.007699999999999,-8.098099695625,-3.053921933020834
mp-1043503,MgCo(Si2O5)2,2.9469000000000003,-7.918956876249999,-2.9224088196875
mp-1043438,CaTi(Si2O5)2,0.0,-8.23238312171875,-3.164759742552083
mp-1043408,TiZn(Si2O5)2,0.0,-7.884992006875001,-2.863984644583334
mp-1043526,MgCr(Si2O5)2,3.6053,-8.2055191534375,-3.051494175
mp-1043369,ZnCu(Si2O5)2,0.9117000000000001,-7.4898671490625,-2.7061276209375
mp-1043405,ZnSi4SnO10,2.4444,-7.570368533593751,-2.792231181406251
mp-1043518,VZn(Si2O5)2,1.682599999999999,-7.93484556921875,-2.83956232859375
mp-1043519,MgV(Si2O5)2,1.880599999999999,-8.13879727515625,-3.020343634218751
mp-1043543,ZnSi4NiO10,0.005399999999999,-7.56907929140625,-2.680281637656249
mp-1043550,MgSi4WO10,2.2137000000000002,-8.22227772125,-2.8616850703125003
mp-1043538,ZnCr(Si2O5)2,3.3001,-8.00364379421875,-2.87278921609375
mp-1043541,MgSi4NiO10,3.2196,-7.79029865921875,-2.878330605156249
mp-1043702,CaSi4WO10,2.2125999999999992,-8.3451471553125,-2.9611088878125003
mp-1043634,CaMn(Si2O5)2,2.789999999999999,-8.29208057328125,-3.145299489401941
mp-1043548,MgFe(Si2O5)2,3.9083,-8.061493269218749,-2.981407432031249
mp-1043607,CaCo(Si2O5)2,2.858199999999999,-8.0618455209375,-3.041851847812499
mp-1043642,CaSi4NiO10,0.0,-7.8660188865625,-2.9306052159375002
mp-1043643,CaFe(Si2O5)2,3.8674,-8.19954749296875,-3.096016039218749
mp-1043605,CaV(Si2O5)2,1.8618000000000001,-8.271812285625,-3.129913028124999
mp-1043629,ZnSi4WO10,2.011399999999999,-8.022320461875,-2.6848982112499993
mp-14862,SrCu(Si2O5)2,1.0593,-7.82555206265625,-3.01476975453125
mp-19441,CaCr(Si2O5)2,3.6256999999999993,-8.34022741140625,-3.16275681640625
mp-19508,SrCr(Si2O5)2,3.500899999999999,-8.328128651250001,-3.170231293125001
mp-19518,BaCr(Si2O5)2,3.4476,-8.34057969296875,-3.16852315671875
mp-19165,BaFe(Si2O5)2,3.8792,-8.2009880759375,-3.102870680937501
mp-849757,LiMn(Si2O5)2,2.6044,-8.07779447671875,-2.937055706172774
mp-6189,CaCu(Si2O5)2,1.0521,-7.837203851875,-3.006848306875
mp-757120,LiFe(Si2O5)2,2.957799999999999,-7.9619976971875,-2.864508556770833
mp-6127,BaCu(Si2O5)2,1.0532,-7.8371894379687514,-3.012247951718751
mp-1214142,Ca11Si4ClO18,0.0,-7.277438312058824,-3.316417560588236
mp-1196593,K2Si4SbO11,0.30909999999999904,-7.375038896111111,-2.7905620149722212
mp-1197427,K2CaSi4O15,0.0,-6.586705024772726,-2.032658364749999
mp-1199706,Na4Si4H18O19,4.8578,-5.964551344055556,-1.915831116789272
mp-1222597,Mg9Si4(HO9)2,5.0615,-7.030309625454546,-3.023366194469697
mp-1261461,Li2Si4NiO10,4.2622,-7.571513833529413,-2.819815916862746
mp-557802,K2Be(Si2O5)2,4.9140999999999995,-7.638903647647059,-3.098725148794117
mp-560889,Ba6Na2Si4O15,4.4294,-7.294574562037036,-3.216130917879948
mp-736542,K3Al2Si4O13,1.1189,-7.43981200034091,-3.034810817920456
mp-757887,Li2Co(Si2O5)2,3.2401,-7.667969548676471,-2.83666692377451
mp-758911,Li2Fe(Si2O5)2,3.5622,-7.784174973970587,-2.8742485555392143
mp-766697,Li2Si4NiO10,3.9421,-7.556986558970588,-2.805288642303922
mp-849321,Li2Mn(Si2O5)2,3.475899999999999,-7.8772006999999995,-2.9265687473292763
mp-560993,CaAl12Si4O27,5.236199999999999,-7.9604439661363635,-3.36388194125
mp-1047015,Zn3Si4(MoO7)2,0.9254000000000001,-7.529632553478261,-2.466882238695652
mp-1171437,Ca3V2(Si2O7)2,0.144299999999999,-8.20965890847826,-3.202818127173913
mp-1182478,Ca2Al4Si4O21,0.0,-7.133905731774194,-2.469326496129032
mp-1200505,Na2Ti2Si4O13,3.5136000000000003,-8.153524477380952,-3.177372535686919
mp-1202971,Ba2Gd2Si4O13,0.12249999999999901,-9.150969896666666,-3.5312099183333343
mp-1203830,Ca2Al4Si4O17,0.32230000000000003,-7.78104245425926,-3.158445702962963
mp-1211613,KMg3(SiO3)4,1.0016,-7.3971076060000005,-3.0421284086125002
mp-1211834,KAl2(SiO3)4,1.0188,-7.826527204473684,-3.105510069592104
mp-1211755,KAl2Si4O11,0.0,-7.784165384444443,-3.07575624234722
mp-1214005,CaAl2(SiO3)4,3.1603,-7.937754510526315,-3.170725262105263
mp-1227927,CaAl2(Si2O7)2,0.16410000000000002,-7.615390743928572,-2.831129899642857
mp-1248487,Mg3Si4(SnO7)2,1.551299999999999,-7.291359961304348,-2.774695615869565
mp-1248597,Ca3Si4(AgO7)2,0.7307,-7.162279919347826,-2.698132041666666
mp-1249986,Mg3Si4(SbO7)2,1.9461,-7.258534211521739,-2.731484702173912
mp-1248780,Zn3Si4(WO7)2,0.0,-7.669547521086956,-2.423103282826086
mp-1249213,Ca3Si4(SnO7)2,2.8973999999999993,-7.588863402826086,-3.023269074999999
mp-1248826,Mg3Si4(MoO7)2,1.4753,-7.906217604347825,-2.795111671521738
mp-1249267,Ca3Co2(Si2O7)2,1.2255,-7.748451978695653,-2.911218966956522
mp-1248859,Ca3Si4(NiO7)2,0.46680000000000005,-7.553419858695652,-2.833863372173912
mp-1256934,Zn3Si4(SnO7)2,1.3686999999999991,-6.905453762391304,-2.437145035
mp-1254259,Mg3Co2(Si2O7)2,1.532599999999999,-7.502796371521739,-2.7144933421739132
mp-1260237,Mg3Si4(AgO7)2,0.6494000000000001,-6.942827481521738,-2.527609586231883
mp-1250887,Mg3Mn2(Si2O7)2,2.137099999999999,-7.867088960869565,-2.902386055689655
mp-1250045,Mg3Ti2(Si2O7)2,0.056,-7.994476275869564,-3.139905829420289
mp-1250217,Zn3Cu2(Si2O7)2,0.24330000000000002,-6.75076217347826,-2.274659114347825
mp-1250828,Ca3Si4(SbO7)2,2.3761,-7.499340694565217,-2.923361202826086
mp-1260235,Zn3Si4(BiO7)2,2.4696,-6.857565549782609,-2.399651391521739
mp-1254120,Mg3Cu2(Si2O7)2,0.2818,-7.153507819782608,-2.629049142608695
mp-1258846,Mn2Zn3(Si2O7)2,1.7039,-7.453956145652175,-2.537608858515742
mp-1250648,Mg3V2(Si2O7)2,2.0513,-7.957662378913043,-2.999751579999999
mp-1254209,Ca3Fe2(Si2O7)2,2.2344,-7.960717615,-3.007258125869565
mp-1254678,Zn3Si4(SbO7)2,1.7516999999999991,-6.867847429782608,-2.38915353847826
mp-1259911,Ti2Zn3(Si2O7)2,0.225999999999999,-7.595968099347826,-2.789753270942029
mp-1262955,V2Zn3(Si2O7)2,1.7930000000000001,-7.5572959391304355,-2.64774075826087
mp-1263117,Zn3Si4(AgO7)2,0.573599999999999,-6.531684107608695,-2.164821830362317
mp-1266531,Ca3Si4(MoO7)2,0.5236000000000001,-8.170164140869565,-3.010128225652173
mp-1264130,Ca3Cr2(Si2O7)2,2.467399999999999,-8.20821786521739,-3.151886527391304
mp-1267920,Ca3Ti2(Si2O7)2,0.0651,-8.243909147826086,-3.340408718985506
mp-1262752,Zn3Co2(Si2O7)2,0.427299999999999,-7.077298755869565,-2.337351344565217
mp-1262781,Zn3Fe2(Si2O7)2,2.0757,-7.308264531521739,-2.452090642826086
mp-1264770,Ca3Si4(BiO7)2,2.8719,-7.487322247608695,-2.932122488913043
mp-1264728,Ca3Cu2(Si2O7)2,0.09429999999999901,-7.383715737391304,-2.810327077826086
mp-1263350,Mg3Si4(WO7)2,0.7106999999999991,-8.01053552326087,-2.715735666956522
mp-1262777,Zn3Cr2(Si2O7)2,2.061999999999999,-7.553486742173912,-2.594441004782608
mp-1263953,Mg3Fe2(Si2O7)2,2.0588,-7.709224527391304,-2.804695020652173
mp-1264854,Mg3Si4(BiO7)2,2.6188000000000002,-7.235568509565217,-2.729298733260869
mp-1266176,Zn3Si4(NiO7)2,0.0,-6.900682372391303,-2.278411486304346
mp-1266557,Mg3Cr2(Si2O7)2,2.4641,-7.950571429130434,-2.943170073695651
mp-1267433,Mg3Si4(NiO7)2,0.204099999999999,-7.294122814347825,-2.62349631021739
mp-1350370,Ca3Si4(SnO7)2,2.148499999999999,-7.552659086521739,-2.9870647586956522
mp-557275,Ca3Mn2(Si2O7)2,1.9055,-8.114412338913043,-3.100779451341829
mp-6824,Na2ZrSi4O11,4.5794999999999995,-8.0471537875,-3.193821267375477
mp-752694,Li2VSi4O11,2.2291,-7.9096778288888885,-2.963533663425925
mp-757933,Li2CrSi4O11,0.9558000000000001,-7.8386400625000014,-2.8608769303703703
mp-759034,Li2FeSi4O11,0.0,-7.6542450325,-2.742205581481482
mp-779020,Li2MnSi4O11,1.423699999999999,-7.7695782822222235,-2.8190947155332062
mp-1211817,KMg3(SiO3)4,1.011899999999999,-7.386426278333333,-3.031447080945833
mp-1177439,Li5Cr(SiO3)4,0.0,-7.392426458560606,-2.834496186590909
mp-1133325,Na5Lu(SiO3)4,3.8211,-7.190184209696969,-2.994407140313479
mp-662810,Na5Lu(SiO3)4,3.684299999999999,-7.178070913939394,-2.982293844555904
mp-1233228,MgSc4(Si2O7)2,0.5823,-8.308528442173913,-3.181003545434782
mp-1235717,LiSc4(Si2O7)2,0.046599999999999,-8.438071593043478,-3.298440050579709
mp-1233919,CaSc4(Si2O7)2,0.49849999999999905,-8.348496875652174,-3.204661984782607
mp-504885,BaFe(Si2O5)2,1.3937,-8.1987711334375,-3.100653738437501
mp-560469,Ba6Nb14Si4O47,0.0,-8.932799582323945,-3.197763532253522
mp-17103,Sr3Ta6(Si2O13)2,3.085499999999999,-9.225563405641026,-3.4146119242051283
mp-559929,Ba3Ta6Si4O23,0.0,-9.053118253333333,-3.151371994694444
mp-6101,Ba3Nb6(Si2O13)2,2.281,-8.800221275128207,-3.243477344102567
mp-6169,Ba3Ta6(Si2O13)2,3.0288,-9.259790477692308,-3.43141231548718
mp-1178070,Li2Cu(Si2O5)2,0.641999999999999,-7.4280117982352944,-2.77519211745098
mp-1264368,Li2Co(Si2O5)2,3.370399999999999,-7.687095891176471,-2.8557932662745102
mp-555568,K2Zn(Si2O5)2,4.2665,-7.340419640147059,-2.946104038647059
mp-757519,Li2Co(Si2O5)2,3.2764,-7.667604890735295,-2.836302265833334
mp-766687,Li2Si4NiO10,3.911999999999999,-7.561498773382353,-2.809800856715686
mp-759063,Li2Fe(Si2O5)2,3.426199999999999,-7.770788401617646,-2.860861983186274
mp-831244,Li2Mn(Si2O5)2,3.5755,-7.8737279373529425,-2.923095984682218
mp-1228410,Ce4Si4N6O5,0.073799999999999,-8.730107198947369,-2.402815457105263
mp-1094131,Mg7Fe(SiO4)4,4.1577,-7.410409263928571,-3.097839281249999
mp-1199161,Na7U5(SiO6)4,0.101399999999999,-8.354055607,-3.196519813491377
mp-1212369,Ho2Cu(SiO3)4,0.7784000000000001,-8.207622581578947,-3.240708382631579
mp-1213119,Dy2Cu(SiO3)4,1.1438,-8.206060017368422,-3.2369672854385962
mp-1227139,Ca5Co3(SiO4)4,2.702999999999999,-7.714625269285714,-2.989736063571428
mp-1227812,CaAl2Si4O15,0.0,-7.245227928863636,-2.453526168181818
mp-1227551,CaAl2Si4O15,0.14020000000000002,-7.245858728636364,-2.454156967954545
mp-1382564,Na2Cu5(Si2O7)2,0.0,-3.6452558248,0.9208322190896551
mp-1651525,Li2Si4Ni5O14,2.5810999999999993,-7.248465582600001,-2.300815369666667
mp-18096,Na2Co(Si2O5)2,2.6552,-7.605533931470588,-2.8409609639858022
mp-18033,Na2Cu(Si2O5)2,1.1273,-7.3668490394117665,-2.780759016044625
mp-505307,Na2Si4NiO10,1.3731,-7.514720168529412,-2.829751909279919
mp-553934,Si4Mo2P4O23,2.6946,-8.16292540999999,-2.742999059805186
mp-554014,Li2Cu5(Si2O7)2,0.39569999999999905,-6.7831558096,-2.171691598666667
mp-555974,Rb2U(SiO3)4,2.4493,-8.187535185789475,-3.222836115526316
mp-556137,Li2Ca4Si4O13,4.6645,-7.558861560869565,-3.303861107028985
mp-559415,Na2Cu2Si4O11,0.0952,-7.14340518368421,-2.5638947588294
mp-561462,Ba2Nd2Si4O13,5.046200000000001,-8.245894134047619,-3.512607946904762
mp-561336,Li2Mg2Si4O11,5.1296,-7.4926199060526315,-3.113271014561402
mp-573024,Na2Cu5(Si2O7)2,0.458499999999999,-6.7186035628,-2.152515518910344
mp-689393,Na2Cu(Si2O5)2,0.0,-5.409647932941176,-0.8235579095740361
mp-696497,Mg3Si4(HO6)2,5.1766,-7.388171375714286,-2.971097704166667
mp-753450,Li2Si4Ni5O14,2.950099999999999,-7.2450254692,-2.297375256266666
mp-756730,Li2V2Si4O11,2.1809,-8.067327673157894,-2.903406565350877
mp-756814,Li2Mn5(Si2O7)2,2.3497,-8.300366578,-2.676340642652873
mp-756999,Li2Mn2Si4O11,2.9965,-8.002124835526317,-2.829981704343618
mp-756830,MgCu2(SiO3)4,0.7968000000000001,-7.337965711578948,-2.55345584131579
mp-757344,Li2Si4Ni2O11,4.213100000000001,-7.513037137631579,-2.69688122877193
mp-757101,Li2Cu(Si2O5)2,0.984599999999999,-7.432407331470588,-2.779587650686274
mp-757512,Li2Cr4Si4O13,1.4712,-8.250894085217391,-2.66590274615942
mp-757408,Li2Fe5(Si2O7)2,2.8575,-7.9557494384,-2.470122319466666
mp-757413,Li2Si4Ni4O13,3.4563,-7.337236283043478,-2.425794646594203
mp-757429,Li2Fe2Si4O11,3.4646,-7.880341549473684,-2.781039900614035
mp-757623,Li2Cr2Si4O11,1.855999999999999,-8.082406584736843,-2.858575855877193