Material_ID,Formula,Band_Gap,Energy_per_Atom,Formation_Energy_per_Atom
mp-1252241,Sr2AlTlCo2O7,0.0,-6.545557730769231,-2.052906607564103
mp-1256846,Ba2AlTlFe2O7,0.0,-6.838054538461538,-2.104918593717948
mp-1268088,BaAlCuAgO5,0.0,-5.949790345555556,-1.800179218518519
mp-1266944,AlMo3Se2ClO8,0.197,-7.083184386666667,-1.436079465645833
mp-1340471,AlMo3Se2ClO8,0.138499999999999,-7.056464245000001,-1.409359323979167
mp-1369848,Sr2AlCu2SnO7,0.0,-5.582396646923077,-1.430539397692307
mp-2219878,MgAlCu(WO4)2,1.5150000000000001,-7.989277114615385,-2.221953959615384
mp-2220125,MgAlAg(WO4)2,2.391599999999999,-7.896820913846154,-2.226133835128204
mp-2219107,MgAlAg(WO4)2,2.2906,-7.8542337,-2.183546621282051
mp-2228209,MgAlTe(WO4)2,1.4968,-7.882519124615384,-2.188726798589743
mp-2233446,MgAlCu(WO4)2,1.4539,-8.039249986923078,-2.271926831923076
mp-2241036,MgAlCu(WO4)2,1.846299999999999,-7.8781592,-2.110836044999999
mp-2714683,Na3AlGe3(PO4)6,2.8166,-7.249620167927929,-2.577087005684552
mp-2714696,Na3AlSn3(PO4)6,2.9366000000000003,-7.237411968558558,-2.614618481990858
mp-2714793,Na3Ti3Al(PO4)6,2.2934,-7.9162084258558565,-2.978340331585453
mp-2714868,Na3Hf3Al(PO4)6,4.738199999999999,-8.241037365405406,-3.1360046484323
mp-2714987,Na3Ca3Al(SO4)6,4.5451999999999995,-6.67072824918919,-2.417518537544268
mp-2715023,Na3Mg3Al(SO4)6,4.789,-6.554569817927928,-2.331776041283007
mp-2715017,Na3AlZn3(SO4)6,4.151,-6.241267266126127,-2.048532387183908
mp-2715254,Na3YAl(PO4)3,4.6344,-7.45575240525,-2.960663290153325
mp-2715298,Na3LaAl(PO4)3,4.4038,-7.356313078666668,-2.939878183319993
mp-2715331,Na3AlGa(PO4)3,4.3385,-7.039064777833333,-2.718025436611659
mp-2715371,Na3LaAl(PO4)3,4.2444,-7.3455780000000015,-2.929143104653325
mp-2715384,Na3ScAl(PO4)3,4.6197,-7.446170399,-2.959912403653326
mp-2715416,Na3AlIn(PO4)3,3.8793,-6.998238167,-2.690644939736659
mp-2715422,Na3ScAl(PO4)3,4.5123,-7.449408444249999,-2.963150448903325
mp-2715466,Na3AlIn(PO4)3,3.7915,-6.997780676625,-2.690187449361658
mp-2715482,Na3YAl(PO4)3,4.677300000000001,-7.453298833875,-2.958209718778325
mp-2715504,Na3AlGa(PO4)3,4.3002,-7.035597142999999,-2.714557801778325
mp-2716513,Na3Zr3Al(PO4)6,3.872699999999999,-8.06401437972973,-3.073264505999868
mp-532554,AlCu2Sb(HO)12,0.0,-5.552385978095238,-1.402724558988095
mp-674897,SrNd3AlCuO8,0.22930000000000003,-7.6128516260714285,-3.082470131249999
mp-677248,Ca2AlH10IO8,3.7769,-5.647534303181818,-1.883164274431817
mp-677499,Na5Ti7Al(PO4)12,2.441799999999999,-8.04493363479452,-3.000955081588276
mp-686729,Na7AlSn11(PO4)18,3.319,-7.24428491440367,-2.556444295121345
mp-730082,Na5Ti7Al(PO4)12,0.0,-4.685693295342466,0.358285257863778
mp-775170,Li2AlCr2SbO8,2.1245,-7.540598223809525,-2.4990120964285722
mp-1238368,AlFe4Hg2O2F,0.0047,-5.2299512175,-0.22447330450000103
mp-767214,Li2AlPCO7,5.732,-7.391949889583333,-2.655009254900793
mp-767417,K2AlPCO7,5.156000000000001,-7.194358502083333,-2.587010058053571
mp-768146,Na2AlPCO7,5.0719,-7.246675144166666,-2.604268190825122
mp-1211751,KAlCr2(HO4)2,1.2993000000000001,-6.462545277857143,-1.422755177124999
mp-707530,Na3AlP2H2O9,4.4885,-6.654200487941177,-2.541043597407274
mp-1213966,Cs3Li2Al(MoO4)4,4.2898,-7.420325958653847,-2.311197851178162
mp-1209431,Rb3Li2Al(MoO4)4,4.2892,-7.412659772884615,-2.2951597613141033
mp-1046349,Ba2AlTlFe2O7,0.0,-6.679509896153846,-1.946373951410256
mp-1045984,Sr2Mn2AlTlO7,0.0,-7.032764477692307,-2.228021266476569
mp-1048438,Ba2AlTlCr2O7,0.0,-7.148071484615385,-2.232931499871795
mp-1045986,Sr2AlTlFe2O7,0.0,-6.774875066153846,-2.076592482948718
mp-1046389,Ba2AlTlW2O7,0.0,-7.212053922307692,-1.788439666794872
mp-1045998,Sr2AlTlCo2O7,0.0,-6.41198903846154,-1.9193379152564112
mp-1046001,Ba2AlTlCu2O7,0.0,-5.933028173076924,-1.87232523448718
mp-1046027,Ba2AlTlSn2O7,0.0,-5.985044305384615,-1.938131338333332
mp-1046035,Sr2AlTlV2O7,0.0,-7.097928962307693,-2.305202554487181
mp-1048433,Ba2AlTlNi2O7,0.0,-6.125129194615384,-1.805821639102564
mp-1048457,Ba2Mn2AlTlO7,0.0,-7.010752086153845,-2.171155513399646
mp-643248,Na2AlH4ClO4,4.516199999999999,-5.426971638333334,-1.956132986479885
mp-1200764,AlH8N2O2F5,6.0133,-5.359466615,-1.634541797499999
mp-1194729,RbAlCu(PO4)2,0.7723,-7.173580786153845,-2.616661427445054
mp-1199345,NaAlH12(SO7)2,5.2103,-5.81554897175,-1.7029667357959761
mp-1199631,NaCaAlOF6,1.491299999999999,-5.729004748749999,-3.37660757438793
mp-1201938,AlH21C3(SO5)3,5.3382,-5.638781518139535,-1.23495451119186
mp-1203689,RbAlV(PO5)2,0.555199999999999,-7.519822700166665,-2.578451161952379
mp-1204336,KAlBP2O9,0.2061,-7.545358011071429,-2.7654341954073143
mp-1204757,CsAlV(PO5)2,0.607399999999999,-7.520650042833334,-2.584115604762726
mp-1208739,SrAlHOF4,0.0,-5.4925960009375,-2.81302839296875
mp-1214467,BaAlPO5F,0.3407,-7.315697806944446,-3.123066507460318
mp-1215134,AlP2H12N3O8,4.6888000000000005,-6.182321774903846,-1.570127874107143
mp-1221830,MnAlB2(PbO4)2,0.2911,-7.700891918928571,-2.46693785866174
mp-1229147,AlFeB2(PbO4)2,1.932,-7.582978292857143,-2.398452381309523
mp-1247815,AlP2H4O8F,5.4863,-6.693138102031249,-2.339717536361606
mp-555467,Sr2AlCO3F5,5.4108,-6.903584628541666,-3.5058977625
mp-556195,Na2AlB(As2O7)2,2.903299999999999,-6.701917792954545,-2.108265367587513
mp-581862,Cs2NaAl(PO4)2,4.604299999999999,-6.923632702767857,-2.829497928480383
mp-603609,AlH20Ru(Cl3O5)2,0.0,-5.082300410789474,-1.358770485657895
mp-727116,AlP3C3NO9,9.999999999998901e-05,-7.460861104999999,-1.546277594789915
mp-734394,KAlP2H4O9,5.3913,-6.6894402270588245,-2.347075085678572
mp-1247906,AlZn2Sb(HO)12,0.0,-4.583117345238095,-0.6362747161309531
mp-1247751,BeAlBO3F2,5.5792,-7.26878910625,-3.164293077395832
mp-1214888,AlZn2Sb(HO)12,2.6138,-5.5595821121428575,-1.6127394830357131
mp-555488,Na5AlP2(O4F)2,4.6651,-6.439957522407407,-2.845706435528643
mp-1266086,CsAlH24(SO10)2,0.005600000000000001,-4.806151974427084,-0.7775376584823991
mp-1191186,CsAlH4(OF2)2,6.321099999999999,-5.44461727375,-2.462488051637931
mp-1195235,BaAlB4H3O10,5.3921,-7.518879504999999,-2.67428859870614
mp-1200535,AlB2P2H7O13,2.5429,-6.651278270200001,-2.010279687854762
mp-1210245,NaAlCr2(HO4)2,2.2186,-6.427462685357143,-1.372647509205665
mp-1250606,Ca2AlH10ClO8,3.5749,-5.257875744772727,-1.478754623068181
mp-14395,NaAlAsO4F,3.4772,-6.53970117625,-2.606811734234914
mp-42175,Ca2AlH10ClO8,4.4504,-5.713610487045455,-1.934489365340908
mp-695927,Ca2AlH10ClO8,3.3211,-5.214456639772727,-1.435335518068181
mp-698350,Na3AlH10C6O17,3.281399999999999,-6.5582789030405415,-1.660718562679404
mp-8678,NaAlPO4F,5.4354,-7.109345079375,-3.083286763252771
mp-2219284,MgAlTl(MoO4)2,0.595799999999999,-7.270043794615385,-1.960620239102565
mp-2241357,KMgAl(MoO4)2,0.202599999999999,-7.331020498461539,-2.116989434788462
mp-2241198,MgAlTl(MoO4)2,0.0,-7.281930888461539,-1.9725073329487182
mp-2233846,CsMgAl(MoO4)2,0.39320000000000005,-7.254248318461539,-2.057401266511938
mp-2234041,CsMgAl(MoO4)2,0.0,-7.321312309230769,-2.124465257281167
mp-1215129,AlCu6SClO19,0.0,-4.972804525892857,-0.389269841160714
mp-1222061,MgAlCr3FeO8,0.0,-8.391932453571428,-2.507011203214285
mp-2713177,NaNbAl(PO4)3,2.6148,-7.961649190833333,-2.9166183972393283
mp-2713437,NaTaAl(PO4)3,3.476099999999999,-8.129985602222222,-2.986864669591179
mp-2714062,NaAlZn(SO4)3,4.7114,-6.474078447685185,-2.133097837622925
mp-2714044,NaCaAl(SO4)3,4.5174,-6.731478455833334,-2.349061386326629
mp-2714149,NaMgAl(SO4)3,5.0139,-6.6952172414814815,-2.333640720030332
mp-2715013,Na4AlZn(PO4)3,4.0748,-6.7378613397619045,-2.642901568783134
mp-2715031,Na4MgAl(PO4)3,4.6042000000000005,-6.912552813968254,-2.79993940465615
mp-2715214,Na4CaAl(PO4)3,4.1093,-6.931407386031747,-2.8009306498148803
mp-1199312,RbAlP2(HO4)2,5.3382,-7.001136547738095,-2.57748812840136
mp-10510,BaAlBO3F2,6.0472,-7.419265895625,-3.542324607395833
mp-1249529,Y2BeAlBO7,4.4989,-8.481601119999999,-3.330076911597221
mp-686689,Y2BeAlBO7,4.340400000000001,-8.412627757916667,-3.261103549513889
mp-558491,BaAlBO3F2,6.0642,-7.419415248124999,-3.5424739598958332
mp-1224126,K2AlSn(PO4)3,3.6794000000000002,-7.251474239210526,-2.74411425149624
mp-677733,K2TiAl(PO4)3,2.9115,-7.696998912105263,-2.985116810619047
mp-6860,Na3AlP3NO9,5.1524,-7.147317019117646,-2.624547281945088
mp-1045601,AlFe3Se2ClO8,2.3164,-6.758216422666666,-1.586237281645832
mp-1045114,AlV3Se2ClO8,1.3073000000000001,-7.121753071,-1.826996957979167
mp-1194400,Ca2AlH2OF7,6.5056,-5.95136661,-3.4212099871153843
mp-1195722,AlH2Pb3OF9,4.6703,-5.450182224375,-2.70977708078125
mp-1197821,AlH14SeNO14,3.5761000000000003,-5.655397338225806,-1.384960265156249
mp-1199353,Ca2AlCuAs3O19,0.013500000000000002,-5.858388287884614,-1.247711020480768
mp-1201081,AlCrMo6(H19O20)2,3.412,-6.256831194418605,-1.542792952180233
mp-1222672,LiMgAl(MoO4)3,3.5881,-7.891076659444445,-2.3801071537962972
mp-1223985,K2AlMo3(P2O7)4,0.15130000000000002,-7.886998601904763,-2.639094745991497
mp-1224806,K5AlCr4(MoO4)10,2.7560000000000002,-8.095392498333332,-2.188899904604166
mp-1228395,Ba6Sm3Al(Cu2O5)4,0.0,-6.534551173947369,-2.293286507236843
mp-1227507,Ca2AlH10BrO8,4.0762,-5.683532417272727,-1.914029028522727
mp-1229294,AlZnH10O7F5,0.9899999999999991,-5.213241071458333,-1.748158874062499
mp-1264957,AlCo3Se2ClO8,1.8001,-6.3709089,-1.466250656979166
mp-1361141,K2AlMo3(P2O7)4,0.0,-3.145234110714285,2.102669745198979
mp-41795,LiAlPO4F,6.1023,-7.2226687725,-3.125710195372024
mp-542563,NaMg3Al(MoO4)5,3.5484,-7.817103345833333,-2.378230769045977
mp-560164,Li3AlMo2(AsO7)2,2.8901,-7.168715827272726,-2.17892747340909
mp-643387,AlH2PbO2F3,4.496700000000001,-5.871927132222222,-2.551256586388889
mp-644409,LiAlPHO5,5.728999999999999,-7.091751702777778,-2.735646848802909
mp-695316,Ca2AlH10BrO8,4.1827,-5.684789388636364,-1.915285999886364
mp-722684,KAlP4(H2O7)2,5.662599999999999,-7.000463040833334,-2.442506395867559
mp-758995,MnAlP2(HO)15,3.7952,-6.155844156029412,-1.7768603375284342
mp-800838,MnAlP2(HO)15,0.0051,-4.784965825588236,-0.405982007087257
mp-1200079,AlB5H16(NO7)2,4.7254000000000005,-6.427851477105263,-1.7590828648903511
mp-1198095,CsAlH24(SO10)2,5.2934,-5.577531913229166,-1.5489175972844822
mp-24046,NaAlH24(SO10)2,5.6387,-5.580516043072916,-1.542865410289151
mp-24523,CsAlH24(SeO10)2,4.3980999999999995,-5.421783378177044,-1.419937732642516
mp-723378,KAlH6(OF3)2,7.1417,-5.2515682818750005,-2.337382004046875
mp-720464,CsAlH24(SO10)2,0.10690000000000001,-4.787902867708333,-0.7592885517636491
mp-1222721,LaTiAlPbO6,2.507200000000001,-8.182038301999999,-3.184289496833332
mp-1518979,KLaAlBiO6,0.0,-6.809899354000001,-2.470824054225001
mp-1520853,SrEuAlBiO6,0.0,-7.569068036999999,-2.6386764195000003
mp-1521352,KEuAlBiO6,0.0,-7.131171621,-2.256885840225
mp-1522018,KPrAlBiO6,0.0,-6.739928799,-2.414907063891667
mp-1523034,CaEuAlBiO6,0.0,-7.554961917999999,-2.593253121499999
mp-1044976,BaAlCuWO5,0.0,-7.219523471111111,-1.946002060555555
mp-1048241,AlSb3Se2ClO8,0.0,-5.687816504,-1.384041356979165
mp-1042520,BaAlVCuO5,0.0,-7.049837844444444,-2.206785785
mp-1266279,Ba2AlTlCo2O7,0.0,-6.551330907692307,-2.023826422948718
mp-1229224,AlB2Pb6(OF)7,2.963,-6.322382313260869,-2.521819902318839
mp-1046011,Ba2Ti2AlTlO7,0.0,-7.302123876153846,-2.6573770380769233
mp-1218241,SrLa3MgAlO8,2.8049,-7.9580976435714295,-3.568084551428572
mp-1218168,SrNd3AlCuO8,0.0,-7.70232708642857,-3.171945591607142
mp-1216100,Y2BeAlBO7,4.9749,-8.690972316249999,-3.539448107847221
mp-1221476,Na2AlCr(P2O7)2,3.3801,-7.638625914545454,-2.7742889586968182
mp-1250779,AlSn3Se2ClO8,2.614,-6.001268909999999,-1.721379230645833
mp-1229072,AlGaCu2(AsO5)2,1.053,-6.477126929375,-1.865130660156249
mp-1046905,Sr2YMn2AlO7,0.397599999999999,-8.082490641923076,-2.959469016604773
mp-1042971,Sr2AlCoCu2O7,0.023699999999999003,-6.5281584200000005,-2.136005411923077
mp-1046824,Sr2YAlCo2O7,0.0,-7.472586826923077,-2.661657289615384
mp-1048081,Sr2YAlSn2O7,1.171599999999999,-7.033094836923076,-2.702756817307691
mp-1046808,Sr2YAlNi2O7,0.730699999999999,-7.323558533846154,-2.720825925769231
mp-1043524,Sr2AlCu2NiO7,0.111499999999999,-6.328438756538461,-2.040384213076923
mp-1047100,Sr2YAlV2O7,0.3315,-8.03561595923077,-2.924611137307693
mp-1048068,Sr2YTi2AlO7,0.0,-8.171756793076922,-3.243584902435896
mp-1046696,Sr2YAlCr2O7,1.6052,-8.183138175,-2.984573137692308
mp-1046811,Sr2YAlW2O7,0.0,-8.212907628846155,-2.5058683207692303
mp-1047019,Sr2YAlFe2O7,1.377899999999999,-7.844099138846153,-2.827538141538461
mp-1249417,Sr2TiAlCu2O7,0.0,-7.028462371153846,-2.5776881864102563
mp-1267964,Sr2AlFeCu2O7,0.0349,-6.697264662307692,-2.202295924230768
mp-1262567,Sr2MnAlCu2O7,0.0,-6.798919455384616,-2.250720403302387
mp-643741,Sr2YAlCu2O7,0.0,-7.038436370769231,-2.694308379615385
mp-699136,NaAlH2CO5,5.044,-6.7647741875000005,-2.180164187137932
mp-1518895,EuAlInWO6,0.0,-7.0402102055,-1.096334430666667
mp-1046341,Sr2AlCu2SbO7,0.14900000000000002,-6.384155581153847,-2.223111456153845
mp-1042742,Sr2AlFeCu2O7,0.41629999999999906,-6.697734321538461,-2.202765583461537
mp-1228994,AlGa2Bi(BO3)4,3.9445,-7.615637967,-2.626392900583334
mp-1252807,Sr2AlGaCo2O7,0.8266999999999991,-6.920439245384616,-2.377278590961539
mp-686726,LaTiAlPbO6,1.8555000000000001,-8.189294519,-3.191545713833334
mp-1019720,CsZr2Al(PO4)4,4.3838,-8.2768849303125,-3.1694588952386082
mp-1208690,SrLaAlCuO5,0.0,-7.322723526944445,-2.965721002500001
mp-741045,Na4AlP2HO9,4.6898,-6.6177329721323535,-2.625367002782527
mp-1045571,AlNi3Se2ClO8,1.5065,-6.072665376333333,-1.438663141312499
mp-1048242,AlBi3Se2ClO8,0.0,-5.706754034666667,-1.4507722736458342
mp-1046436,Ba2AlTlV2O7,0.0,-7.215235802307693,-2.387656032948719
mp-1265780,Ba2AlTlV2O7,0.0,-7.253021415384615,-2.425441646025641
mp-1203080,K2AlSO4F3,5.7847,-6.122989469318187,-2.879346197681823
mp-24618,AlH10N2OF5,6.3073,-5.327230423815789,-1.7013873402631572
mp-730446,AlH10SO9F,5.7307,-5.739556460965908,-1.7267791334659082
mp-1214981,AlP2CN3O10,0.0,-6.480768426617647,-0.698437152605042
mp-556310,LiAlS3(Cl2O3)2,1.9832,-5.441083765166667,-1.7643177605555551
mp-24608,K2AlH2OF5,5.9924,-5.380777303181818,-2.897516300181818
mp-644285,KAlH2CO5,5.0845,-6.7605645505,-2.196989655724999
mp-1211169,MnAlPH4O7,3.6275,-6.8061687285714285,-2.053350340183849
mp-1218862,Sr2CaAlO4F,4.4684,-6.872877522777778,-3.446018824444444
mp-23768,AlZnH4O2F5,5.0839,-5.3055915157692315,-2.378578509615384
mp-1193110,AlZnH4O2F5,4.558,-5.195370522307693,-2.268357516153846
mp-24142,MgAlH4O2F5,5.837,-5.608367458846154,-2.652837036923077
mp-644506,NaAlH2CO5,4.943,-6.765433670499988,-2.180823670137918
mp-1043752,Sr2AlCrCu2O7,0.0,-6.846434851153846,-2.260464093076923
mp-1043885,Sr2AlCu2MoO7,0.0,-6.825685301538461,-2.147975878846153
mp-1046771,Sr2AlV2GaO7,0.43149999999999905,-7.424185015384615,-2.580949076346154
mp-1222901,Li2AlCr2SbO8,2.1334,-7.543269806428571,-2.501683679047619
mp-1252036,Sr2YAlV2O7,0.7058,-8.070921378076923,-2.9599165561538463
mp-1266326,BaAlCuSbO5,0.0,-6.18187462,-1.889367541666667
mp-1249385,Ba2Ti2AlTlO7,0.0,-7.384118336153846,-2.739371498076923
mp-1229188,AlC2Br5(NO3)2,0.0,-4.35498888375,0.44200867937500005
mp-1046756,Sr2TiAlCu2O7,0.0,-7.028078840384615,-2.577304655641025
mp-1042903,Sr2MnAlCu2O7,0.0,-6.798243926538461,-2.250044874456233
mp-1048505,Sr2AlGaFe2O7,1.267099999999999,-7.227698876923076,-2.4789067625
mp-1048042,Sr2AlGaCu2O7,0.0,-6.411664719230769,-2.335305610961537
mp-1046495,Sr2AlCu2BiO7,0.0315,-6.328376190384615,-2.185714136923076
mp-1201174,CsAlAs3H5O12,3.4114,-6.123766794090909,-1.804890191745689
mp-1227540,Ca2AlH10ClO8,4.3499,-5.711646372727272,-1.9325252510227262
mp-1342473,Sr2AlGaNi2O7,1.5629,-6.682413056923077,-2.347449331730769
mp-2712854,AlGeP(SO6)2,2.5239000000000003,-7.033522406862745,-2.24315014772409
mp-2712829,TiAlP(SO6)2,2.433099999999999,-7.541222450196079,-2.558352299194679
mp-2712928,AlSnP(SO6)2,3.1267,-7.02202354009804,-2.2677369280182083
mp-2712960,ZrAlP(SO6)2,4.167,-7.649698657156863,-2.6284632936064423
mp-2713094,HfAlP(SO6)2,4.9123,-7.773701658921569,-2.6695552130182083
mp-2713315,Na2HfAl(PO4)3,4.952999999999999,-7.874776695877194,-3.032242008860729
mp-2713365,NbAlP2SO12,2.6439,-7.890541120882354,-2.702792912163866
mp-2713423,TaAlP2SO12,3.448299999999999,-8.064801175588237,-2.773192819654062
mp-2713563,Na2TiAl(PO4)3,2.5387999999999993,-7.674247369824562,-2.9402230519309063
mp-2713598,Na2ZrAl(PO4)3,4.3789,-7.7539182279824574,-2.9855671409659923
mp-2713680,Na2AlGe(PO4)3,2.9602999999999993,-7.243794440175439,-2.682005078158975
mp-2713717,Na2AlSn(PO4)3,3.5176,-7.227649206403509,-2.698147002281782
mp-559777,Na5Ca2Al(PO4)4,4.8096,-7.041128139821429,-2.923462080373856
mp-532810,KAlCo(PO4)2,3.2012,-7.514983100576923,-2.713060226464285
mp-1042194,BaAlCuSbO5,0.0,-6.179202635555556,-1.8866955572222222
mp-1042497,BaAlCrCuO5,0.0,-7.042128192222222,-2.135838199444444
mp-1042504,BaAlCuMoO5,0.0,-6.947225985555556,-1.9084245883333342
mp-1042180,BaAlCuBiO5,0.0,-6.160989486666667,-1.8950342894444452
mp-1042199,BaAlCuSnO5,0.0,-6.253289614444444,-1.9740524677777782
mp-1042464,BaAlFeCuO5,0.0,-6.781814817777778,-2.006972187222222
mp-1042519,BaAlCuWO5,0.0,-7.176165842222223,-1.9026444316666682
mp-1042474,BaMnAlCuO5,0.0,-6.933167284444445,-2.081436422547893
mp-1042181,BaAlCuAgO5,0.0,-5.732709106666666,-1.583097979629629
mp-1042478,BaAlCuNiO5,0.0,-6.294497572222222,-1.818531000555555
mp-1042494,BaAlCoCuO5,0.0,-6.525190241111111,-1.898859220555555
mp-1446611,BaTiAlCuO5,0.0,-7.188052143333333,-2.477046089814815
mp-2647039,KLaTaAlO6,1.7024,-8.486171789,-3.349407165958332
mp-1173817,NaAlH22C10(NO6)2,0.054799999999999,-6.018217301041667,-0.8490568690391521
mp-1223527,KMg3AlGe3(O5F)2,2.9396999999999993,-6.6523265810000005,-2.8050888828625
mp-2713263,Na2LaAlP2SO12,4.5344999999999995,-7.311187268859649,-2.800141838835666
mp-2713296,Na2ScAlP2SO12,4.4031,-7.394550629298246,-2.810007199274264
mp-2713329,Na2AlGaP2SO12,4.125500000000001,-6.9588327539473696,-2.548203696686544
mp-2713612,Na2AlInP2SO12,3.814899999999999,-6.91889502008772,-2.522419766993562
mp-2713630,Na2YAlP2SO12,4.6377,-7.404389149912282,-2.810549804361983
mp-2714370,NaAlInP(SO6)2,3.6385,-6.8380955810185196,-2.342862521445676
mp-2714344,NaYAlP(SO6)2,4.397200000000001,-7.353478080833334,-2.649916257001232
mp-2714474,NaLaAlP(SO6)2,4.0204,-7.259011723055556,-2.642843476723454
mp-2714595,NaScAlP(SO6)2,4.2359,-7.342710272314815,-2.648960803760491
mp-2715765,NaAlGaP(SO6)2,4.1605,-6.881608193425927,-2.371435007232714
mp-769069,Na2Li4Ti3Al(PO4)6,0.0,-7.565212567250001,-2.840335312848728
mp-769073,Na2LiTi3Al(PO4)6,2.3538,-7.939289198378379,-2.9860913179445703
mp-769074,Na2LiTi3Al(PO4)6,2.5293,-7.942002587567567,-2.988804707133759
mp-1195968,CsAlVP2(HO5)2,2.769,-7.315631915294118,-2.5604348889082873
mp-1196580,AlCoP2C2(NO4)2,0.3982,-7.778566851874999,-1.751847219642857
mp-1215048,AlH10C3N6OF5,4.4482,-6.26086990875,-1.263557368557693
mp-24757,AlBP2H5NO9,5.4268,-6.981936597105263,-2.187111668931705
mp-542130,RbAlBP2HO9,5.4081,-7.442317962833333,-2.764767015646826
mp-542129,CsAlBP2HO9,5.393000000000001,-7.436001200333334,-2.763287353290504
mp-697278,NaCaAlH2OF6,6.7783,-5.697517737291666,-3.171325685531609
mp-735184,AlVP2C2N2O9,2.2879,-8.034388986617648,-1.9563910765756312
mp-773092,AlNiH16N(OF)6,5.667,-5.331622587903225,-1.6749279570967741
mp-773079,AlZnH16N(OF)6,5.4816,-5.211704306290323,-1.7008288067741941
mp-769078,Na2Li3Ti3Al(PO4)6,0.069799999999999,-7.684285844615384,-2.8872046315542503
mp-24279,AlH36C12S6(IO2)3,3.384,-5.0637242978125,-0.441763128828125
mp-24764,AlH36C12S6(ClO2)3,3.8105,-5.118303586875,-0.48113035328125003
mp-1199471,BaNaAlMo6(H13O17)2,3.4128,-6.447126225,-1.685022257085207
mp-24646,NaAlBP2H3O10,5.7883000000000004,-7.065268582222222,-2.495116093532316
mp-722997,NaCaAlH2OF6,6.6377,-5.696857317083334,-3.170665265323276
mp-721813,AlH18CS2N3O14,5.2875,-5.891481693247863,-1.361988266068375
mp-1198421,NaMgAlH18(C2O7)3,3.5644,-6.325956613263888,-1.594499601157207
mp-1229293,AlCu6H12SClO19,0.0051999999999990006,-5.4256463775,-1.1986221665625
mp-1201631,AlCu6H18SClO19,0.5487000000000001,-5.430434028043478,-1.311913004782608
mp-1197634,AlP2H16C2N3O8,4.851199999999999,-6.03252438265625,-1.283929440133929