Material_ID,Formula,Band_Gap,Energy_per_Atom,Formation_Energy_per_Atom
mp-758011,Li2Fe4Si4O13,2.9365,-7.927806087826087,-2.5485584461594213
mp-758026,Li4Si4Bi2O13,2.43,-7.050551539782608,-2.640093919275362
mp-758640,Li2Cr(Si2O5)2,2.7634,-7.914942901470589,-2.935426703039217
mp-765771,Li2Fe2Si4O11,3.4827,-7.811316055789473,-2.712014406929825
mp-766013,Li2Cu4Si4O13,0.10690000000000001,-6.861632309565218,-2.242526327028986
mp-766408,Li2V(Si2O5)2,1.6954999999999991,-7.8807619941176466,-2.9347247015686273
mp-766023,Li2Cu2Si4O11,0.6245,-7.225558200789473,-2.586342292982456
mp-767711,Li2Mn2Si4O11,3.181699999999999,-8.061262638157894,-2.889119506975197
mp-767720,Li2V4Si4O13,2.0586,-8.252807367173913,-2.76679714115942
mp-770682,Li2Co(Si2O5)2,2.701699999999999,-7.653030053235294,-2.821727428333333
mp-770701,Li2Si4NiO10,3.7818,-7.584749110588236,-2.833051193921569
mp-772589,Li2Fe(Si2O5)2,3.3375,-7.795810132352941,-2.885883713921568
mp-780994,Li2Mn2Si4O11,0.0,-6.194080396842105,-1.021937265659407
mp-781020,Li2V2Si4O11,0.0205,-7.068729973421052,-1.9048088656140352
mp-797054,Li2Fe2Si4O11,2.0829,-7.121406837368421,-2.022105188508772
mp-796795,Li2Mn5(Si2O7)2,0.0,-6.348889445999999,-0.724863510652872
mp-796827,Li2Fe5(Si2O7)2,0.0,-5.898481289999999,-0.41285417106666605
mp-801707,Li2Si4Ni5O14,0.0,-5.0349804592,-0.08733024626666601
mp-802450,Li2Mn2Si4O11,1.088,-7.232577747631579,-2.060434616448881
mp-801999,Li2Fe2Si4O11,0.0,-6.101275785,-1.001974136140351
mp-849390,Li2Mn(Si2O5)2,3.1749,-7.892445616764706,-2.941813664093983
mp-860838,Li2Cr5(Si2O7)2,0.0,-6.347881966799999,-0.625649595866665
mp-860880,Li2Mn4Si4O13,2.3459,-8.244154060434782,-2.744559621886557
mp-867580,Li2Cr5(Si2O7)2,2.6538,-8.382377315,-2.660144944066666
mp-1202842,K2BeSi4O13,0.35500000000000004,-6.911431831250001,-2.310085956475001
mp-555606,Na10Be4Si4O17,3.9432,-6.545864036857143,-2.711822081108374
mp-1235436,LiSc4(Si2O7)2,0.0,-8.392460808695652,-3.252829266231883
mp-1255353,MgFe2(SiO3)4,2.390799999999999,-7.999024778157895,-2.754429166842105
mp-1304778,NaFe2(SiO3)4,0.0,-7.850646186842106,-2.621247903756805
mp-765958,LiFe(Si2O5)2,3.1326,-8.0033897084375,-2.905900568020833
mp-867649,LiTi(Si2O5)2,0.5406000000000001,-8.1832666809375,-3.121685615104167
mp-1196058,CaVSi4O11,3.3626,-8.27255511852941,-3.142063993529411
mp-555825,Na4Sc2Si4O13,4.8179,-7.677378408478262,-3.153178995022489
mp-756672,Li4Si4Bi2O13,3.916499999999999,-7.063717226413044,-2.653259605905798
mp-758881,Li4Mn2Si4O13,1.329699999999999,-7.612681994891305,-2.743791245508496
mp-759372,Li4Cr2Si4O13,3.0944,-7.745920481304347,-2.834331281666667
mp-759501,Li4Fe2Si4O13,2.7804,-7.495633932173914,-2.686916581231885
mp-765243,Li4Ti2Si4O13,0.16460000000000002,-7.763849167391305,-3.00509087673913
mp-850217,Li4V2Si4O13,2.1984999999999992,-7.7422805616304355,-2.8801819185144923
mp-1202545,CaV(Si2O7)2,0.3478,-7.3851172545,-2.2820056474999992
mp-1200285,CaVSi4O15,0.8708,-7.142750826666666,-2.047027343571427
mp-1222670,Mg3Al7(Si2O11)2,0.015600000000000001,-7.7281452462499995,-3.237399271666665
mp-1221159,NaMg3(SiO3)4,3.265599999999999,-7.295640784875,-2.9301440346939662
mp-1227767,Ca9Si4O17F,0.7206,-7.493149444999999,-3.4357023320967732
mp-1234464,CaSc4(Si2O7)2,0.16819999999999902,-8.179329369565217,-3.035494478695651
mp-1233367,MgSc4(Si2O7)2,0.0,-8.228315856086956,-3.100790959347825
mp-1154719,CaMn2(SiO3)4,1.1615,-8.262438678421054,-2.925257907676952
mp-1171010,CaFe2(SiO3)4,1.8920999999999992,-8.140796692105264,-2.876457403684211
mp-1201693,CaAl2(Si2O7)2,0.0,-7.609151647857142,-2.824890803571427
mp-1227278,CaCo3(SiO3)4,0.0,-7.9139674289999995,-2.6898347179999993
mp-1227384,CaFe3(SiO3)4,2.9331,-8.211287452499999,-2.786664067999999
mp-1227106,CaMg3(SiO3)4,4.7023,-7.668680804500001,-3.26999009925
mp-1248436,CaCo2(SiO3)4,0.0,-7.791166768947369,-2.66752269
mp-1264011,CaSi4(NiO6)2,0.0,-7.58051466368421,-2.599321115263157
mp-2230316,MgSi4(MoO6)2,3.1986,-8.21657391368421,-2.721912102368421
mp-2230268,MgMn2(SiO3)4,1.0387,-8.17462610894737,-2.8571890153085313
mp-2230369,MgV2(SiO3)4,1.9696999999999991,-8.20136241,-2.892147339736842
mp-2230436,MgCo2(SiO3)4,1.240399999999999,-7.722306376315791,-2.618405974473685
mp-2231130,MgCo2(SiO3)4,0.8454,-7.697541090526317,-2.593640688684212
mp-2230886,MgSi4(MoO6)2,3.3331,-8.329665024210525,-2.835003212894736
mp-2230918,MgTi2(SiO3)4,0.0,-8.245206776842105,-3.061087922719299
mp-2230766,MgMn2(SiO3)4,0.5566999999999991,-8.044529835263159,-2.72709274162432
mp-2230845,MgTi2(SiO3)4,0.09389999999999901,-8.38111065894737,-3.1969918048245622
mp-2230687,MgV2(SiO3)4,0.0,-8.281435204736843,-2.972220134473685
mp-755636,NaFe2(SiO3)4,0.0,-7.855882428947368,-2.626484145862068
mp-774496,Li5Mn(SiO3)4,0.0451,-7.310197834166666,-2.77458720664838
mp-722896,Mg7Si4(HO8)2,4.2259,-7.031380556034482,-2.925440170431033
mp-1214160,Ca2Al(SiO3)4,0.5954,-7.834393645526316,-3.158942078684211
mp-1223619,MgAlSi4O15,0.0,-6.871686851428571,-2.048032897142856
mp-1224150,K3Mg4(Si2O7)2,0.0,-6.9499595172,-2.91441090047
mp-709325,Cu5Si4(HO7)2,0.0,-6.7076915983,-1.9773279016
mp-1182493,CaVSi4O15,0.1768,-7.132521817023809,-2.03679833392857
mp-649944,Na2Cu3(SiO3)4,0.6186,-6.993922194642858,-2.419738111440887
mp-757728,Li2Cr3(SiO3)4,2.3455,-8.203915442857143,-2.782306284603175
mp-774444,Li2Mn3(SiO3)4,1.4207,-8.096358541785714,-2.744896837521893
mp-849759,Li2Si4(NiO4)3,0.0,-7.32687800845238,-2.458541820198411
mp-1202325,LiAl(Si2O5)2,5.373,-8.0444698965625,-3.242258592395833
mp-1227334,Ca8Si4(O5F)3,0.15680000000000002,-7.4282520745,-3.504683962499999
mp-1197555,CaAl2(Si2O7)2,0.087799999999999,-7.6097317278571435,-2.825470883571427
mp-1256217,Ca3Co2(Si2O7)2,1.3937,-7.7221875773913045,-2.884954565652174
mp-1193130,Na5Nd4Si4O17,0.054999999999999,-7.540501802333334,-3.153908374729885
mp-556283,Na2TiSi4O11,2.726199999999999,-7.936937801944443,-3.119839093671773
mp-757188,Li2MnSi4O11,0.06369999999999901,-7.778383762499999,-2.827900195810982
mp-758998,Li2FeSi4O11,0.055299999999999,-7.663672785277778,-2.751633334259259
mp-758359,Li2CrSi4O11,0.528,-7.85945179388889,-2.88168866175926
mp-765578,Li2VSi4O11,0.9102999999999991,-7.899221928055557,-2.953077762592593
mp-1208651,YMg4(SiO3)4,0.0,-6.408269830119046,-1.926947175833332
mp-758904,Li5Co4(SiO4)4,0.42560000000000003,-7.163423711551724,-2.372150283505747
mp-1190556,Li2Al2Si4HO14,0.4934,-7.325120712608696,-2.730473320344202
mp-1210900,Na2Ti3Mn(Si2O11)2,0.0,-7.2318616253125,-2.041600777521551
mp-1190535,Li2Al2Si4HO14,0.7394000000000001,-7.3295974939130435,-2.73495010164855
mp-1222517,LiLa5Si4N10O,2.393399999999999,-8.199874887142856,-1.6941144601587301
mp-1227610,BaSrSi4(NO)4,3.5329,-7.943291846785714,-2.3391754075
mp-1233044,Sr2CaV2(Si2O7)2,1.982699999999999,-8.09840582,-3.118797368260868
mp-1233385,Ba2CaV2(Si2O7)2,2.0222,-8.114139750434783,-3.114831572608696
mp-1233437,Ho2MgCu(SiO3)4,0.152099999999999,-7.9087020080000014,-3.10861001825
mp-1233644,Ba2CaV2(Si2O7)2,1.027199999999999,-7.9952427278260885,-2.9959345500000003
mp-1233650,Sr2CaV2(Si2O7)2,1.7363,-8.04936094478261,-3.069752493043478
mp-1233916,Ba2MgV2(Si2O7)2,1.950899999999999,-7.915824158695652,-2.932825974999999
mp-1234020,Sr2MgV2(Si2O7)2,1.824199999999999,-7.934750060869565,-2.971451603260869
mp-1234246,Sr2MgV2(Si2O7)2,2.369899999999999,-7.964555933478261,-3.001257475869565
mp-1235092,Sr2LiV2(Si2O7)2,1.107999999999999,-7.941178826521739,-2.965773723188405
mp-1234882,Ba2MgV2(Si2O7)2,1.5277,-8.046229101739131,-3.063230918043478
mp-1235062,Sr2LiV2(Si2O7)2,0.6894,-8.009195713478261,-3.033790610144927
mp-1234941,Ba2CaV2(Si2O7)2,1.021799999999999,-8.035316770434783,-3.036008592608695
mp-1235332,LiHo2Cu(SiO3)4,1.6564,-7.981543145000001,-3.1675285126666672
mp-1235709,Ba2LiV2(Si2O7)2,0.2716,-8.02575989,-3.03065506057971
mp-1235820,Ba2LiV2(Si2O7)2,1.5163000000000002,-7.962840647826087,-2.967735818405796
mp-1235590,Ba2LiV2(Si2O7)2,1.477599999999999,-7.96021067,-2.96510584057971
mp-1238298,Na2Ti3Mn(Si2O11)2,0.8174,-7.2868136634375,-2.096552815646551
mp-1235972,LiHo2Cu(SiO3)4,1.6822,-7.936962801999999,-3.122948169666666
mp-1248954,Ca2Mn2Si4H6O17,0.0742,-7.207773293548388,-2.416713997366519
mp-1250398,Cs2CaAl4(SiO4)4,2.8994,-7.632897881728395,-3.200582824665815
mp-677292,Cs2CaAl4(SiO4)4,2.7723,-7.618441913580247,-3.1861268565176672
mp-686598,Ca8MgSi4(ClO8)2,0.746,-6.918095263548388,-2.974837106935484
mp-690271,Ca2Al4Si4H18O25,0.8968,-6.216203123773585,-1.9613579120283022
mp-695074,KNa3Al4(SiO4)4,4.0627,-7.465084324285714,-3.143388482192426
mp-695251,Ca2Al4Si4H18O25,0.0,-6.251772532452831,-1.996927320707548
mp-720460,Na9Zr8Si4(PO6)8,1.3802,-7.753770137012988,-2.779948310903335
mp-720989,Na9Zr8Si4(P4O23)2,1.3511,-7.561010987333333,-2.586499539327421
mp-734340,Na9Zr8Si4(PO6)8,0.0,-4.81362135038961,0.160200475720043
mp-1204232,Na9U3Si4(O10F)2,0.0,-7.562891102105263,-3.07768283874773
mp-1196570,Rb2LuSi4O10F,4.927899999999999,-7.7508259875,-3.32985431287037
mp-1195556,K5Y2Si4O13F,4.347499999999999,-7.4300029072000005,-3.165456940249999
mp-1196647,Nd13Mg2Si4B8O43,0.0,-8.353959102214285,-3.309022157154762
mp-1198458,Rb2ScSi4O10F,5.0158,-7.809758702083333,-3.288188046805555
mp-1198799,K2EuSi4O10F,0.09809999999999901,-7.934680389166666,-3.176592283305555
mp-1208788,Sr3TiSi4H2O13,0.0,-7.485447570869566,-2.885974773079711
mp-605935,K5Eu2Si4O13F,0.0,-7.600795140200001,-3.033927540050001
mp-775466,K2InSi4HO11,4.2809,-7.259847472894736,-2.810062062232456
mp-1195727,K4CaU(Si2O7)2,2.0738,-7.66171929875,-3.128585341624999
mp-1189006,KLiMn2(SiO3)4,2.041,-7.949389357500226,-2.827332989822496
mp-1210298,Na3Sr2Ti3(Si2O9)2,0.09090000000000001,-7.870921625666667,-3.142219466471264
mp-1234765,Ho2MgCu(SiO3)4,0.0,-7.874902066500001,-3.07481007675
mp-543034,Ba3Zn6Si4TeO20,2.6456,-6.659994937352941,-2.6270777434313732
mp-706640,CaAl2Si4(H2O7)2,0.12510000000000002,-7.156152428,-2.5941466886
mp-744386,Al9Fe2Si4HO24,0.3811,-7.9254300915,-3.06298690228125
mp-1019518,Ba2CaSi4(BO7)2,5.0218,-8.10262766347826,-3.312407685579709
mp-1020592,Sr4Li2Si4N8O,2.781799999999999,-6.9653807534210515,-1.4946958492982452
mp-1173532,Nd4Mg2Ti3(Si2O11)2,2.496,-8.551343598142855,-3.506303025571427
mp-1173574,Nd4Ti3Co2(Si2O11)2,0.0,-8.559886950857143,-3.200392280857142
mp-1197352,InSi4H41C15O,3.5632,-5.174040592701613,-0.22177908875672
mp-1200227,LiSi4H27(C3O)3,3.276,-5.248641875397727,-0.40360639175189306
mp-1210375,Na2ZrSi4H4O13,4.9217,-7.332712894583333,-2.714522347614943
mp-1211102,Nd4MgSi4(C2O11)2,0.658199999999999,-8.089544549,-2.713140664857143
mp-1211576,Nd4CoSi4(C2O11)2,0.0,-8.145688876857143,-2.612057944000001
mp-1211577,KSr2Si4O10F,4.8589,-7.65474186625,-3.343021841375
mp-1212027,La4MgSi4(C2O11)2,1.6322,-8.173924930857142,-2.778337084142856
mp-561529,KEu2Si4O10F,0.0,-8.571789042361111,-3.304993036930555
mp-733509,Na2TiSi4H4O13,3.2593,-7.255309642708333,-2.6642944546288323
mp-1197910,KSi4H27(C3O)3,2.750499999999999,-5.225489626022727,-0.398125804738637
mp-1019774,K2CeAl(SiO3)4,0.170799999999999,-7.911452611,-3.260349144725
mp-1173602,NaMg3Si4HO12,4.260099999999999,-7.346192135714285,-3.026901590839491
mp-1197037,Ca2Al4Si4H10O21,4.9859,-6.984405421463415,-2.629439063109757
mp-1203461,Rb2EuGa(SiO3)4,0.662299999999999,-7.843867278499999,-3.026163265374999
mp-1211839,KAl2Si4(HO6)2,0.0,-7.433426733095238,-2.8386810930833333
mp-1227703,Ca6Mn3Al(SiO6)4,0.0,-7.524626627894737,-2.6899540693103443
mp-555485,Rb2GdGa(SiO3)4,3.3463,-8.13902114725,-3.131916617875
mp-558318,Rb2TbGa(SiO3)4,4.1811,-7.676863545125,-3.141671946583334
mp-555230,Rb2YGa(SiO3)4,4.169399999999999,-7.765292820625,-3.136539828249999
mp-540861,KNa3Al4(SiO4)4,3.1469,-6.643835504107143,-2.322139662013854
mp-559901,KNa3Al4(SiO4)4,4.5058,-7.476484883392857,-3.154789041299568
mp-1198346,Na2BeSi4(H4O7)2,5.3614999999999995,-6.606821259310345,-2.311755324060642
mp-677703,Nd4Si4N7ClO3,3.1856,-8.282233713947369,-2.185695517105262
mp-677082,Ce4Si4N7ClO3,0.11139999999999901,-8.471301277499999,-2.128699409605262
mp-686294,Ce4Si4N7ClO3,0.0,-8.428683773552631,-2.086081905657894
mp-699390,Pr4Si4N7ClO3,3.111899999999999,-8.273526166842105,-2.171235543508772
mp-1198788,Ba6Li2Si4ClO15,0.0,-7.179579537142858,-3.14026099327381
mp-1173631,NaMg3Si4O11F,3.6605,-7.199403875250001,-2.985612556568965
mp-1192578,K2Ca4U(SiO4)4,2.0773,-7.881686362222222,-3.346679059425926
mp-1203730,InSi4H39C14O,3.6954000000000002,-5.171971063898305,-0.23940809992231601
mp-1210279,NaCa2Si4O10F,4.9558,-7.6851182836111125,-3.3269152234099613
mp-1210346,NaCa6Ti(Si2O9)2,0.2619,-7.314907456333333,-2.913728046823754
mp-1227137,Ca4TiSi4Sn3O20,3.1716,-7.7136603321875015,-3.069688478385417
mp-1227154,Ca4ZrTi3(SiO5)4,2.938099999999999,-8.52077404375,-3.492115655625
mp-1227165,Ca4Ti3Si4SnO20,2.9791,-8.2261725134375,-3.33933064953125
mp-1227178,Ca4ZrTi3(SiO5)4,3.0056,-8.522981628125,-3.494323240000001
mp-1234027,CaHo2Cu(SiO3)4,0.0,-7.9142603750000005,-3.095411892
mp-1235309,LiHo2Cu(SiO3)4,1.799999999999999,-7.978655903000001,-3.164641270666667
mp-1256989,LiVSi4(HO6)2,1.9547999999999992,-7.626049363999999,-2.683051064291666
mp-1266205,Li3VSi4(HO6)2,2.3965,-7.410302443181817,-2.743129182840908
mp-19130,KNaFe(Si2O5)2,1.1496,-7.735381502058823,-2.9045583325664293
mp-543047,KNaCu(Si2O5)2,0.819399999999999,-7.373184746764706,-2.799468314919371
mp-554248,KNaMn(Si2O5)2,2.8079,-7.837405664705883,-2.965876960974138
mp-555953,Na2Cu2Si4H4O13,0.185699999999999,-6.6604812744,-2.240989840910345
mp-684467,Rb2EuGa(SiO3)4,0.18120000000000003,-7.844364485750001,-3.026660472625001
mp-695597,NaMg3Si4O11F,3.2335,-7.154659437875,-2.940868119193965
mp-743949,Na3VSi4(HO6)2,0.06010000000000001,-7.290747545454545,-2.700920024392633
mp-761158,LiVSi4(HO6)2,1.7735,-7.6042647835,-2.661266483791666
mp-773087,Li2MgCu2(SiO3)4,0.6435999999999991,-7.170217890476191,-2.659573449126984
mp-770607,Li3VSi4(HO6)2,2.3358,-7.3954089059090915,-2.728235645568181
mp-850230,Mn9Zn6Si4(SbO14)2,1.0069,-7.567635572857143,-2.2917420620689652
mp-1214692,Ba6NaNd(SiO4)4,3.647599999999999,-7.561052638928571,-3.329182422817118
mp-1565615,NaCaFe2(SiO3)4,1.604899999999998,-7.9345466917500005,-2.866338328818966
mp-1019537,BaAlSi4N5O3,3.2165,-8.061884486785713,-2.068949156071428
mp-1201439,CaVSi4(H2O5)3,0.696099999999999,-7.071532181851852,-2.353710264166666
mp-1214510,Ca2Y2Si4C3O23,0.0,-7.7362588767647065,-2.435677862867647
mp-1233550,Sr2MgV2(Si2O7)2,0.0,-7.845134109130435,-2.8818356515217403
mp-1233646,Sr2CaV2(Si2O7)2,0.0,-7.87806407,-2.898455618260869
mp-1235096,Ba2LiV2(Si2O7)2,0.926,-7.957813771739131,-2.962708942318841
mp-1235454,Sr2LiV2(Si2O7)2,0.7606,-7.940450048695652,-2.965044945362319
mp-677011,K4BaTa6(Si2O13)2,2.8428,-8.801912389512195,-3.2410763569024392
mp-1221204,NaMg3Si4HO12,4.1913,-7.346416415476191,-3.027125870601396
mp-554911,K2Mn2Zn4Si4O15,0.9687000000000001,-7.052913023333333,-2.5511933320504463
mp-6875,BaNa2Al4(SiO4)4,4.7346,-7.759221672592592,-3.297985820102171
mp-556356,Na2SrAl4(SiO4)4,4.782599999999999,-7.748030269814813,-3.295185041398465
mp-561352,BaNa2Ti2(Si2O7)2,3.3673,-8.060956818695653,-3.218951309105447
mp-1173560,NaMg3Si4O11F,4.4609,-7.42853869475,-3.214747376068965
mp-1195231,Ca2Mn2Si4H8O17,1.2933,-7.081114238181818,-2.374654509117032
mp-1214076,CaAl2Si4(HO6)2,2.9796,-7.42606719047619,-2.78969154297619
mp-1221093,NaCaFe(SiO3)4,0.0,-7.5858001552631595,-2.696634573756807
mp-1220982,NaLiGa2(SiO3)4,4.2668,-7.387014146999999,-2.8678321534856313
mp-1221167,Na4ZnCd(SiO3)4,3.4754,-6.691052577272727,-2.660896163887146
mp-1221317,Na2ScIn(SiO3)4,4.2568,-7.6983549505,-3.055760521221264
mp-1221399,Na2AlFe(SiO3)4,2.9823,-7.7410951755,-2.942303036637931
mp-1227399,Ca2MgFe(SiO3)4,3.5451,-7.936251068750001,-3.1768263105
mp-1233213,Sr2MgV2(Si2O7)2,2.3901,-7.96468761826087,-3.001389160652174
mp-1233426,Ba2CaV2(Si2O7)2,1.771099999999999,-8.044270535652174,-3.044962357826087
mp-1233083,Sr2CaV2(Si2O7)2,2.0797,-7.979910401304348,-3.000301949565217
mp-1227451,Ca2CoSi4NiO12,2.9093,-7.848976598,-2.948898731
mp-1233374,Ba2MgV2(Si2O7)2,2.016399999999999,-8.025881482608696,-3.042883298913043
mp-1227662,Ca2ZnFe(SiO3)4,3.2058,-7.76203850675,-3.021150068749999
mp-1235848,Sr2LiV2(Si2O7)2,0.0,-8.00236655826087,-3.026961454927536
mp-19122,BaSr2Mn2(Si2O7)2,0.0,-8.08578296826087,-3.103148711994003
mp-694890,NaCaFe2(SiO3)4,1.5807,-7.936560845,-2.868352482068965
mp-744672,Ca2Mn2Si4H6O17,0.168499999999999,-7.2007114083870984,-2.409652112205229
mp-771836,Li2ScFe(SiO3)4,2.9551,-8.030803552,-3.045946540583334
mp-850191,NaLiFe2(SiO3)4,2.738,-7.801231217,-2.7378567047356333
mp-1214792,BaFe3Si4SO11,1.262699999999999,-7.957633121000001,-2.577821055375
mp-1218507,SrCaAl4(SiO5)4,0.0,-7.335978179666667,-2.691284062666667
mp-1233416,Sr2MgV2(Si2O7)2,0.693099999999999,-7.887489992608696,-2.9241915350000003
mp-1233096,Sr2MgV2(Si2O7)2,0.6062999999999991,-7.904702823043478,-2.9414043654347832
mp-1233748,Sr2CaV2(Si2O7)2,0.8815000000000001,-7.937099480869565,-2.957491029130434
mp-1235467,Sr2LiV2(Si2O7)2,0.0,-7.919910017391304,-2.944504914057971
mp-1235393,Sr2LiV2(Si2O7)2,0.566099999999999,-7.9595121478260875,-2.9841070444927533
mp-1235397,Ba2LiV2(Si2O7)2,0.6856,-7.9820276769565215,-2.9869228475362313
mp-1205145,Na2TiSi4H2O13,0.34679999999999905,-7.320992497727274,-2.6212637869814532
mp-1196025,Rb3Sc2Si4(O2F)5,5.195399999999999,-7.4612779653125,-3.446416112291666
mp-1196674,Cs2ErSi4O10F,4.809,-7.733188414583334,-3.317721275933908
mp-1197862,Ca2Y2Si4CO16,0.15940000000000001,-8.2185253911,-3.133457532999999
mp-1198008,CaVSi4H8O15,3.177899999999999,-6.9947304895689655,-2.3681261911206892
mp-1211967,KSr6Sc(SiO4)4,4.2940000000000005,-7.632094960803571,-3.4004144048125
mp-1214832,CaVSi4H12O11,0.0357,-6.022482545000001,-1.610056807413793
mp-581114,Cs2YSi4O10F,4.938700000000001,-7.828915769513888,-3.30559459253113
mp-862811,Cs2KU2(Si2O7)2,0.0,-8.303017698695651,-3.237675478111318
mp-1223068,Li7Eu8Si4Cl7O16,0.29139999999999905,-7.954620460595239,-2.967102360436509
mp-542863,Ca7NbSi4O17F,3.5509,-7.875666369666666,-3.479967510333332
mp-1222211,Mg5Mn3Zn4(SiO6)4,0.0,-6.963331607000001,-2.435088941219828
mp-1228059,Ba3SrMg2(Si2O7)2,4.4968,-7.6071366495833335,-3.370344185833332
mp-1227752,CaAl2Si4(ClO4)3,0.07830000000000001,-7.104850290227273,-2.735797303863637
mp-1227034,Ca4ZnCo(Si2O7)2,3.1546,-7.5860383053125,-3.111526386979166
mp-1192338,Na5Sm4Si4O16F,4.6397,-7.568350465666667,-3.2895021653965513
mp-1192370,Na5Pr4Si4O16F,4.466,-7.542869033000001,-3.253769356285441
mp-1192403,Na5Ho4Si4O16F,4.7593,-7.584668701999997,-3.3219412910632142
mp-1192390,Na5Gd4Si4O16F,3.0854,-8.810600042666666,-3.284080261729884
mp-1192572,Na5Tm4Si4O16F,4.800599999999999,-7.579663634,-3.332293287729886
mp-1192490,K5Pr4Si4O16F,5.043299999999999,-7.521227357,-3.267186189597221
mp-1192521,Na5Nd4Si4O16F,4.518,-7.554191826333334,-3.268735353063219
mp-1192543,Na5Dy4Si4O16F,4.7514,-7.58489505,-3.3194081639521062
mp-1192492,Na5Tb4Si4O16F,4.7059000000000015,-7.584672995666667,-3.316587696952107
mp-1192436,Na5Eu4Si4O16F,0.0,-8.032049506666667,-3.010597769063218
mp-1192584,Na5Er4Si4O16F,4.7932999999999995,-7.585665339,-3.326932682063217
mp-557696,Na5Y4Si4O16F,4.7696000000000005,-7.817103686666667,-3.299521337729885
mp-866662,K5La4Si4O16F,4.6591000000000005,-7.583861990333333,-3.311082736708333
mp-1195951,Rb2ScSi4O10F,4.7661999999999995,-7.8054349613888885,-3.2838643061111092
mp-17240,RbNa3Li12(SiO4)4,4.8031,-6.200904553611111,-2.623642914489942
mp-557777,K2ScSi4O10F,4.7453,-7.830103592222222,-3.291773420249999
mp-686310,BaNa2Al4(SiO4)4,4.757,-7.756562607222222,-3.295326754731801
mp-1200866,Na2TiSi4H4O13,4.1008,-7.256390208541667,-2.6653750204621662
mp-1210589,Na2Ca5TiSi4(O8F)2,0.0,-7.418663785333333,-3.241887587869731
mp-1221128,NaCa3MgFe(Si2O7)2,3.132,-7.636787355416666,-3.118798279015803
mp-1221464,Na2Ca5TiSi4(O8F)2,0.0,-7.407492485666666,-3.230716288203065
mp-1221506,Na11TiNb2Si4(PO13)2,0.6257,-7.208700307826087,-2.773129960821554
mp-1228533,Ba2SrCa3Mg2(SiO4)4,4.8951,-7.506220323928571,-3.374907258214285
mp-2713061,Na4Nb3InSi4(PO12)2,2.4156,-7.855913246052632,-2.863459160038675