Material_ID,Formula,Band_Gap,Energy_per_Atom,Formation_Energy_per_Atom
mp-1199429,Ca2CoSi2O7,3.1123,-7.777716587268519,-3.058468289351852
mp-850962,LiFe2(SiO4)2,0.0188,-7.667013273717949,-2.337529474743589
mp-24097,Mg3Si2H4O9,4.2499,-6.689022291944444,-2.586002241666667
mp-16855,K3Ta3Si2O13,2.9687,-8.591515563809525,-3.154895519940477
mp-17059,K3Nb3Si2O13,2.222699999999999,-8.165220401190478,-2.9808321434166682
mp-1019889,KSi2BO6,5.3233999999999995,-7.886798961249999,-3.051882602891666
mp-1182812,CaAl2(SiO5)2,0.06820000000000001,-7.230919607000001,-2.5757864303333333
mp-1180369,Na3Si2PO8,3.0387,-6.466914685892857,-2.190131831520056
mp-1198051,K2Al2Si2O9,0.5306000000000001,-7.177324850333334,-2.834913102966667
mp-1226125,CsSi2HO5,4.7013,-7.221163362222222,-2.788542796211685
mp-657378,Na3Si2PO8,3.155399999999999,-6.4517497016071435,-2.174966847234341
mp-559346,K3Nb3Si2O13,2.1432,-8.171995882380953,-2.987607624607143
mp-558320,K3U3Si2O13,0.48359999999999903,-8.696232646904763,-3.341829393416667
mp-643141,K2Si2Pb2O,0.0,-3.849896218571429,-0.20894898278571303
mp-16595,K3DySi2O7,3.7062,-7.193332309999996,-3.078036326032047
mp-16598,K3TmSi2O7,3.755499999999999,-7.196249650512821,-3.091405516416668
mp-16594,K3TbSi2O7,3.6879,-7.191042610128206,-3.074247541929487
mp-16596,K3HoSi2O7,3.721599999999999,-7.195280120256411,-3.081576141160257
mp-1195475,K3SmSi2O7,3.615299999999999,-7.173913598333334,-3.050909106160257
mp-16597,K3ErSi2O7,3.7371,-7.197661728589744,-3.086262415262821
mp-8614,K3NdSi2O7,0.0,-7.161955133974354,-3.035138234301277
mp-680437,K3GdSi2O7,3.1454,-7.897321254615385,-3.054506292826924
mp-557543,K3LuSi2O7,3.6132,-7.200695262307692,-3.092836822570512
mp-557577,K3ScSi2O7,3.6378,-7.284939525769231,-3.03779018975
mp-1019526,Ba3Si2(B3O8)2,5.4031,-8.183430935555556,-3.151901765740739
mp-1044098,Si2Bi13(SbO14)2,0.5682,-6.398551813333333,-1.771396419777778
mp-1044174,Si2Sn13(SbO14)2,0.49289999999999906,-6.544609556444444,-1.882921094333332
mp-1044954,Si2Ni13(SbO14)2,0.1459,-6.214741615777778,-1.041556648666667
mp-1105550,NaTi(SiO3)2,0.14419999999999902,-8.0792183495,-3.101656860971265
mp-1191344,U2Cu(SiO9)2,0.0,-7.157788273478261,-1.653616063043478
mp-1192124,U2CuSi2O17,0.16390000000000002,-7.124135394545454,-1.594680856590908
mp-1193942,NaTb(SiO3)2,4.3118,-7.984982163999993,-3.333183514804591
mp-1197149,ReSi2(PO5)3,2.1158,-8.081053266190477,-2.663692031972789
mp-1198063,Na2Ti2Si2O11,1.1615,-7.423774679705883,-2.497149226436782
mp-1227479,CaAl2(SiO4)2,4.8989,-8.017824218076923,-3.407741476538461
mp-1227800,Ca3Si2GeO9,4.362999999999999,-7.609138954333334,-3.207664781
mp-1228563,Al2Si2PbO8,4.296,-7.840124283461538,-3.098730219615384
mp-1264671,PrYSi2O7,0.0,-8.350551216363636,-3.187739756969696
mp-1266446,Li10Cu(SiO5)2,0.34490000000000004,-6.03608975173913,-2.40484273231884
mp-1248784,Si2Bi13(SbO14)2,0.6391999999999991,-6.41401118688889,-1.7868557933333342
mp-1251404,Fe13Si2(SbO14)2,0.016899999999999003,-7.619696345111111,-1.669433624888888
mp-1244564,Cu13Si2(SbO14)2,0.032799999999999004,-5.59580614,-0.9082231757777771
mp-1295198,Li2Fe2Si2O7,3.4796,-7.579253856538462,-2.4835422220512813
mp-1320262,ZnFe(SiO3)2,2.9053999999999993,-7.640009462250001,-2.613192771250001
mp-1333616,Fe13Si2(SbO14)2,0.0577,-7.099780798000001,-1.149518077777778
mp-1385211,NaTb(SiO3)2,0.0,-3.743875531999999,0.9079231171954021
mp-24601,Al3Si2H3O10,5.476000000000001,-7.337063994722222,-2.795259943819444
mp-556265,Cs6Si2NiO8,3.087,-5.855502507647059,-2.228306848701826
mp-557618,Rb4CuSi2O7,0.7041000000000001,-6.218838871428572,-2.3968598675
mp-558191,Na2ZrSi2O7,4.5653,-7.873298882083333,-3.146840108563217
mp-560675,K6Cu(SiO4)2,0.5214999999999991,-5.9182992752941175,-2.311137563147058
mp-561495,Cs4CuSi2O7,0.5831000000000001,-6.178913713571406,-2.377665138830027
mp-6532,CaAl2(SiO4)2,4.7227,-8.035761564134615,-3.425678822596153
mp-677813,Rb4CuSi2O7,0.0,-4.412131654285714,-0.590152650357142
mp-725970,NaZrSi2O7,0.0,-8.076565049545454,-3.042402821943573
mp-752650,Li4Fe(SiO4)2,0.21960000000000002,-6.934269877,-2.498267425222222
mp-753700,Li2Si2WO7,2.8366,-7.916404,-2.727875745138888
mp-753932,Li6Fe(SiO4)2,3.890199999999999,-6.699246041470588,-2.560547070294117
mp-757307,LiV(SiO3)2,2.1235,-8.098317015000001,-2.945193912333335
mp-757048,LiTi(SiO3)2,0.0848,-8.129884246,-3.095602548666667
mp-758658,CaAl2(SiO4)2,4.994299999999999,-8.0344084875,-3.424325745961538
mp-758702,Li6Co(SiO4)2,2.700299999999999,-6.587987891470588,-2.527912713823529
mp-765857,LiCr(SiO3)2,3.1536,-8.097667413,-2.887630170333334
mp-765964,Li2VSi2O7,1.733,-7.696024155833334,-2.8303479143055563
mp-766170,Li9Ti5(SiO8)2,0.0,-7.452895118124999,-2.869277054895833
mp-767624,Li9V5(SiO8)2,1.6425,-7.350487865,-2.5811801059375
mp-859122,Li9Mn5(SiO8)2,1.1513,-7.14269137625,-2.361179051239224
mp-859111,LiFe(SiO3)2,2.4901,-7.817703519999999,-2.725968903333333
mp-859799,Li9Si2Ni5O16,0.596299999999999,-6.2287133821875,-1.9756195903125002
mp-1259488,LiFe(SiO3)2,3.2173,-7.82303279325,-2.731298176583334
mp-1223598,KAl(SiO3)2,4.9148,-7.7394330060000005,-3.197898241725
mp-555318,K2Zn(SiO3)2,3.9235,-6.739962553636364,-2.734427540409092
mp-557611,Mn2Si2Pb2O9,1.3527,-7.701414218,-2.292640229390805
mp-863416,LiFe(SiO3)2,3.231,-7.784741595750001,-2.693006979083334
mp-1222469,LiAl(SiO3)2,4.9935,-7.846857136,-3.227567057333333
mp-752617,LiFe(SiO3)2,3.0233,-7.838282975,-2.7465483583333343
mp-1228626,Ba2Si3Ge5O18,3.2348,-7.429938390357143,-2.7052119141071422
mp-1210000,Nd3Cd2Si3O13,0.0,-7.66886226309524,-3.058199890119049
mp-1208747,Sm5Si3NO12,2.2611,-8.612395011190475,-3.489409555476191
mp-1207885,Y3Mg2Si3O13,0.0,-8.282926679761905,-3.359704694761906
mp-1214227,Ca2La3Si3O13,0.0,-8.282399349761906,-3.5481770530952392
mp-1214310,Ca2Gd3Si3O13,0.0,-9.567007587857145,-3.5270545576190493
mp-1214181,Ca2Nd3Si3O13,0.0,-8.222234732380953,-3.5119923889285722
mp-17037,Rb2Ti(SiO3)3,3.1316,-7.845952264000001,-3.1350080442222232
mp-17648,Yb5Si3SO12,0.09329999999999901,-17.218070770238096,-3.473716902038688
mp-18243,K2Si3SnO9,3.8295,-7.339848636333333,-2.8678543406333343
mp-17382,Rb2Si3SnO9,3.8147,-7.317360065666667,-2.86547719
mp-1323665,Ca2Y3Si3O13,0.0,-8.494126868809524,-3.53517823
mp-558207,Eu5Si3O12F,0.0,-9.635998905714285,-3.492860900952382
mp-6694,Cs2Zr(SiO3)3,4.789899999999999,-7.967021778,-3.222271184287356
mp-6600,K2Zr(SiO3)3,4.813,-7.995729036666668,-3.221192822633334
mp-6810,K2Ti(SiO3)3,3.2108,-7.867272906333334,-3.136217266522223
mp-1228625,BaAl2Si3O14,0.538,-7.160305842999999,-2.412429104999999
mp-1214228,BaZr(SiO3)3,4.6556,-8.555323192500001,-3.464303285
mp-1194160,BaHf(SiO3)3,4.6887,-8.711577395,-3.519879744642858
mp-18502,BaSi3SnO9,3.7306,-7.859610929285715,-3.092743077142858
mp-6661,BaTi(SiO3)3,3.0661,-8.429726390714286,-3.385292812738096
mp-1180329,Na2ZrSi3O10,0.5121,-7.64815770875,-2.836488563297414
mp-1195938,K2ZrSi3O10,0.827199999999999,-7.67577332625,-2.890398062781249
mp-1195518,Na3Tm(SiO3)3,4.2135,-7.455532444804688,-3.123328260375809
mp-1195099,K2Si3SnO10,0.9085000000000001,-7.06585921046875,-2.5641169954375
mp-1197256,K2TiSi3O10,0.7994000000000001,-7.54054661578125,-2.795934390645834
mp-1199444,Rb2ZrSi3O10,0.8808,-7.66688928390625,-2.90036847671875
mp-1203085,Na3Y(SiO3)3,4.2323,-7.558858998632813,-3.099992937953933
mp-1210886,Na2ZrSi3O10,0.948299999999999,-7.6295502709375,-2.817881125484914
mp-1209611,Rb2TiSi3O10,0.897899999999999,-7.5492165767187505,-2.823458807864584
mp-554359,Cs2Si3SnO9,3.9233000000000002,-7.312188894333333,-2.869980218954023
mp-758180,CsSi3HO7,5.0187,-7.507064551875,-2.905829124033764
mp-757618,LiFeSi3O8,3.1971,-7.900960047692307,-2.805684185641025
mp-757471,Li2V(SiO3)3,2.131399999999999,-7.785277034,-2.871320038111112
mp-1214740,Ba2Zr2(SiO4)3,4.2351,-8.578238434868421,-3.4948259459210522
mp-1019747,K2Ca3Si3O10,4.1123,-7.317600044722222,-3.204538754416666
mp-1020706,SrY2Si3O10,4.9314,-8.6159119109375,-3.5867759590625
mp-1193367,NaCa2(SiO3)3,0.2757,-7.533347026666667,-3.122645448425288
mp-1193750,NaMn2(SiO3)3,0.0,-8.119756033,-2.754865733149427
mp-1193671,NaCd2(SiO3)3,0.21900000000000003,-6.791178323666667,-2.519888704091954
mp-1200205,Y4Si3O11F2,5.1168,-8.8024530655,-3.774073270749999
mp-1202207,Ca3Si3(HO5)2,4.745999999999999,-7.441776881944444,-3.077182623194444
mp-1219605,RbAlSi3O8,4.9009,-7.90514619,-3.244703725961538
mp-1220859,NaAlSi3O8,5.0577,-7.894116687692308,-3.205890630875331
mp-1222571,LiAlSi3O8,5.4216,-7.943425497692307,-3.211568511025641
mp-1223636,KAlSi3O8,4.9275,-7.912803177307692,-3.240757970942307
mp-1228177,AlTlSi3O8,4.586,-7.849569552307693,-3.082131854102565
mp-1228941,AlSi3AgO8,3.0442,-7.754215648076922,-2.950511368205127
mp-1326495,LiVSi3O8,0.0,-4.128146367692308,1.014351406666667
mp-1337071,AlSi3AgO8,0.0,-0.45618948807692306,4.347514791794872
mp-1344789,LiAlSi3O8,0.0,-3.349199533076923,1.3826574535897431
mp-1368706,LiFeSi3O8,0.0,-2.9147497230769233,2.180526138974358
mp-1371287,LiFeSi3O8,0.0,-3.887120041153846,1.208155820897436
mp-1374032,LiCrSi3O8,0.0,-3.881861747692308,1.304416134358973
mp-1374455,LiMnSi3O8,0.0,-4.482882715769231,0.6656234602873551
mp-1376587,LiTiSi3O8,0.0,-3.971485242692307,1.079596066025641
mp-1426051,NaAlSi3O8,0.0,-0.677354443076923,4.010871613740052
mp-1408914,CaZnSi3O8,0.0,-3.791894091153846,0.75618172576923
mp-18216,BaCa2(SiO3)3,4.5847,-7.87700383,-3.427818641
mp-504590,Ca2Si3PbO9,4.3821,-7.731129204666668,-3.162365873666667
mp-541026,CaMg3Si3O10,3.532199999999999,-7.5050361763235305,-3.231355348970588
mp-554009,Er4Si3O11F2,5.0561,-8.45788537875,-3.817780121999999
mp-554905,CaZnSi3O8,4.3077,-7.659018678846153,-3.110942861923076
mp-554539,Ca6Si3H2O13,4.7197,-7.333965409375001,-3.1913246046875
mp-559532,NaFe3Si3O10,1.371699999999999,-7.989558375441176,-2.547949637287018
mp-696416,NaSi3BO8,5.3553,-7.985043402692307,-3.071139196580459
mp-697670,KAlSi3O8,4.9243000000000015,-7.916996933846153,-3.244951727480768
mp-721988,NaAlSi3O8,4.8862000000000005,-7.900413502692307,-3.21218744587533
mp-734814,NaAlSi3O8,0.40429999999999905,-3.6949060392307693,0.993320017586206
mp-753254,LiCrSi3O8,2.710899999999999,-8.11426958423077,-2.9279917021794883
mp-757183,LiFeSi3O8,2.4191000000000003,-7.902306896923077,-2.807031034871795
mp-757037,LiFeSi3O8,3.3579,-7.941581948076922,-2.84630608602564
mp-757596,LiFeSi3O8,3.2045,-7.928664433846153,-2.8333885717948712
mp-757876,LiMnSi3O8,1.487699999999999,-8.005357661153846,-2.856851485097259
mp-759853,Li3Co2Si3O10,0.0,-7.285149292222223,-2.521306726666667
mp-765984,LiVSi3O8,2.9766,-8.1275213075,-2.985023533141025
mp-766251,LiTiSi3O8,0.6163000000000001,-8.154137017692308,-3.103055708974359
mp-781030,LiFeSi3O8,0.0,-2.724212935769229,2.371062926282051
mp-1202728,K2ZrSi3O11,0.4676,-7.384164488823529,-2.589225358205882
mp-1203979,Na2Si3SnO11,0.14269999999999902,-6.808414099117647,-2.255676536926977
mp-1154487,Mn3Al(SiO4)3,0.6549,-8.17949154131579,-2.554064812041742
mp-1163946,AlCo3(SiO4)3,0.43520000000000003,-7.494585533157894,-2.189463841578946
mp-1250723,AlFe3(SiO4)3,1.976999999999999,-7.945508895921053,-2.429344390131579
mp-766402,Li2VSi3O8,3.1803,-7.762235742142857,-2.85070760404762
mp-766692,Li2Si3NiO8,4.400900000000001,-7.4091923514285725,-2.733647741190476
mp-1194354,K3Ti4Si3O20,0.0,-7.428629874333334,-2.4215881601694442
mp-1019788,K4Al3(SiO4)3,0.0,-7.184576140227273,-3.029408297909091
mp-542090,Na4Al3(SiO4)3,0.0,-7.189631515681818,-2.9962180268416923
mp-1154470,Ca3Ti2(SiO4)3,0.0693,-8.261553633625,-3.388590142458334
mp-1154534,Zn3Si3(SbO6)2,1.7355,-6.531576684625,-2.147140711625
mp-1154587,Ca3Si3(NiO6)2,0.014299999999999001,-7.441873672625,-2.780445715125
mp-1154662,Y2Si3(SnO4)3,2.2625,-7.8957690911250005,-2.8608498553749993
mp-1157153,Ca3Si3(AgO6)2,0.16540000000000002,-6.94376429375,-2.576056236416666
mp-1154457,Al2Cu3(SiO4)3,0.12349999999999901,-7.212757065124999,-2.440744174124999
mp-1154656,Zn3Si3(MoO6)2,1.2614,-7.38912342125,-2.33302256125
mp-1154711,Ca3Si3(WO6)2,2.481199999999999,-8.36993450675,-2.99070719425
mp-1154476,Mg3Si3(AgO6)2,0.125899999999999,-6.624606944749999,-2.313168367166665
mp-1154524,Y2Mn3(SiO4)3,3.0614,-8.820331980125,-3.012546228814654
mp-1154758,Mg3Si3(NiO6)2,0.0819,-7.1710668608749994,-2.565908383125
mp-1157205,Zn3Cu2(SiO4)3,0.4172,-6.429757068875,-2.048300552875
mp-1157231,Mg3Si3(WO6)2,2.1308,-8.032506460875,-2.709548628125
mp-1163929,Al2Si3(SnO4)3,2.123899999999999,-7.403983254624999,-2.645415585875
mp-1157227,Y2Si3(WO4)3,1.121999999999999,-8.7366948415,-2.359491849499999
mp-1157674,Al2Si3(NiO4)3,3.560799999999999,-7.6206877665,-2.5965353739999992
mp-1157336,Y2Co3(SiO4)3,2.7187,-8.208188996374998,-2.704693030874998
mp-1157313,Y2Cr3(SiO4)3,2.2234,-8.783807228875,-2.902366650875
mp-1157822,Zn3Si3(BiO6)2,2.0979,-6.523556134874999,-2.163016854875
mp-1157332,Y2V3(SiO4)3,2.715799999999999,-8.756306369499999,-2.9602370015
mp-1163930,Ca3Co2(SiO4)3,1.990299999999999,-7.6607354521249995,-2.863979490625
mp-1163936,Ca3Cu2(SiO4)3,0.38579999999999903,-7.216880321374999,-2.723545364874999
mp-1163922,Y2Ti3(SiO4)3,0.31820000000000004,-8.68449840375,-3.06669114375
mp-1163927,Ca3Si3(BiO6)2,3.2982,-7.403507257875001,-2.931089537375
mp-1163934,Ca3V2(SiO4)3,1.8973,-8.229281139375,-3.237476242875
mp-1170750,Ca3Si3(MoO6)2,3.077000000000001,-8.23418101475,-3.06620171425
mp-1163950,Zn3Si3(WO6)2,0.798099999999999,-7.520172916875,-2.252824044875
mp-1163942,Al2V3(SiO4)3,2.0694,-8.407813316375,-2.888095515374999
mp-1163940,Mg3Si3(SbO6)2,2.9489,-7.037737903,-2.597692969249999
mp-1207890,Y2Mg3(SiO4)3,3.785399999999999,-7.9395775845,-3.26152362475
mp-1211091,Lu3Mg2(SiO4)3,0.0,-8.11906458775,-3.49519016075
mp-1253507,Zn3Cr2(SiO4)3,2.681999999999999,-7.438285349249999,-2.501444753249999
mp-1324099,Mg3Co2(SiO4)3,2.539799999999999,-7.4009411305,-2.66045464875
mp-1327416,Zn3Co2(SiO4)3,2.365999999999999,-6.883782277,-2.198904756
mp-1330803,Ca3Si3(SnO6)2,0.0,-7.404926302375,-2.920554827374999
mp-1327088,Mg3Si3(MoO6)2,2.667499999999999,-7.902778300375,-2.7910684796250003
mp-1251134,V2Zn3(SiO4)3,0.0,-7.362512913250001,-2.482586457250001
mp-1324167,Y2Fe3(SiO4)3,3.845799999999999,-8.52648134575,-2.822494706749999
mp-1328058,Mn2Zn3(SiO4)3,0.084999999999999,-7.235711318375,-2.347973940168104
mp-1214208,Ca3Y2(SiO4)3,3.800099999999999,-8.300107927374999,-3.565784487875
mp-1257835,Zn3Si3(NiO6)2,0.009999999999999001,-6.65353797125,-2.10398845425
mp-1258162,Zn3Fe2(SiO4)3,2.4973,-7.136190675125,-2.317652705125
mp-1328088,Al2Si3(WO4)3,0.115999999999999,-8.179016726625,-2.078165301624999
mp-1261874,Y2Cu3(SiO4)3,0.12359999999999902,-7.523264394250001,-2.474899936250001
mp-1262556,Mg3Ti2(SiO4)3,0.0,-7.9428832835000005,-3.126189272083333
mp-1328117,Mg3Si3(BiO6)2,3.465300000000001,-7.02762072725,-2.6114724865000003
mp-1328703,Mg3Si3(SnO6)2,0.19709999999999903,-7.068403961625,-2.640301966375
mp-1265011,Mg3Cu2(SiO4)3,0.3795,-6.946935994875,-2.509870518124999
mp-1324601,Zn3Si3(AgO6)2,0.0,-6.1007950865,-1.8449654696666662
mp-1331145,Ca3Si3(SbO6)2,2.9629000000000003,-7.398807069875,-2.9024926563749993
mp-1254352,Ti2Zn3(SiO4)3,0.0,-7.431297875625001,-2.670212824958334
mp-14043,Mg3V2(SiO4)3,0.0,-7.932663761624999,-2.997128344875
mp-1364038,Zn3Si3(SnO6)2,0.0,-6.564266448250001,-2.191773413750001
mp-1364639,Ti3Al2(SiO4)3,0.364899999999998,-8.341096965625,-2.9996412726250012
mp-1363993,Y2Si3(NiO4)3,3.0365,-7.914381144249999,-2.613877184749999
mp-1364177,Al2Cr3(SiO4)3,2.3564,-8.456326038624999,-2.851237027624999
mp-14050,Ca3Ga2(SiO4)3,4.4117999999999995,-7.5277129106250005,-3.141489018875
mp-14051,Ca3Mn2(SiO4)3,0.0,-8.045803089875001,-3.046187271168104
mp-14046,Mn3V2(SiO4)3,0.0,-8.730115675875,-2.664848467564655
mp-14047,Al2Cd3(SiO4)3,3.1407,-7.054680908250001,-2.75354748925
mp-14049,Ba3Al2(SiO4)3,3.4204,-7.60069346275,-3.15571533125
mp-14052,Ca3In2(SiO4)3,3.8105,-7.4354955579999995,-3.076163894166666
mp-14044,Mg3Mn2(SiO4)3,0.0,-7.756634557125001,-2.813288218168105
mp-14048,Sr3Al2(SiO4)3,4.572,-7.757109106874999,-3.346113002874999
mp-21791,V2Fe3(SiO4)3,0.0,-8.445903357750002,-2.48443526175
mp-555470,Mn2Fe3(SiO4)3,0.048499999999999,-8.319734344374998,-2.350455326168102
mp-6008,Ca3Al2(SiO4)3,5.1373,-7.903603816875,-3.445631944374999
mp-6073,Mg3Al2(SiO4)3,5.1184,-7.65507681125,-3.253374418499999
mp-6172,Al2Fe3(SiO4)3,3.826900000000001,-8.212615115750001,-2.784980043750001
mp-6186,Al2Co3(SiO4)3,2.9748,-7.914228779,-2.6870843805
mp-6239,Mn3Fe2(SiO4)3,2.364,-8.50162855725,-2.497749834939655
mp-6480,Mn3Al2(SiO4)3,3.7426999999999992,-8.487067646749999,-2.9556334624396543
mp-6274,Mn3Cr2(SiO4)3,2.923499999999999,-8.8011810325,-2.6789996841896553
mp-6551,Mg3Fe2(SiO4)3,2.711699999999999,-7.656398953875,-2.782252023124999
mp-6255,Ca3Sc2(SiO4)3,4.2109,-8.31349691325,-3.59683571325
mp-6670,Cr2Fe3(SiO4)3,3.1738,-8.520222379875,-2.501840143874999
mp-6672,Ca3Fe2(SiO4)3,2.6416999999999993,-7.945992171375001,-3.015575760875001
mp-6414,Ca3Cr2(SiO4)3,3.247699999999999,-8.240082603499985,-3.191363566999984
mp-6700,Mg3Cr2(SiO4)3,3.4797000000000002,-7.9572934772499995,-2.964843920499999
mp-1198493,Ca2Al2(SiO4)3,0.0,-7.711829003684211,-3.124784921052631
mp-1199602,Si3C10NO7,0.21020000000000003,-7.956401729285713,-0.74037250095238
mp-1205275,Si3C10NO7,0.633799999999999,-7.930271153571428,-0.714241925238094
mp-1182785,K3Ho(SiO3)3,2.823699999999999,-7.2843757675,-2.984413781984375
mp-560105,K3Ho(SiO3)3,4.0034,-7.416672336875,-3.116710351359375
mp-653861,K3Lu(SiO3)3,3.4819,-7.4181547509375,-3.122942266151042
mp-766406,Li3V(SiO3)3,2.2965,-7.571200789374999,-2.8450584265625
mp-1200500,Na2ZrSi3O11,0.1708,-7.375916673529412,-2.556230359868154
mp-1221765,Na3Al3Si3O14,0.3687,-7.079109099130435,-2.696096143223388
mp-1229197,Al3Si3(PbO8)2,0.2652,-7.110049854374999,-2.355660196041666
mp-1228564,Ba2Si3GeO10,4.1604,-7.7748516834375,-3.136317816250001
mp-1262735,Li2CoSi3O8,3.333199999999999,-7.538235237499999,-2.766027767261905
mp-6481,Na2ZnSi3O8,3.9475,-7.103781721785714,-2.832151200554187
mp-734142,Al2Si3(HO4)3,0.0,-7.095025066875,-2.4286182105625
mp-753262,Li2CoSi3O8,3.1595,-7.5374203699999995,-2.767005680119047
mp-757113,Li2Si3NiO8,3.8704,-7.409661442500001,-2.734116832261905
mp-754104,Li2MnSi3O8,3.4936,-7.769593331428572,-2.85248596318555
mp-757743,Li2MnSi3O8,2.984099999999999,-7.778848603928573,-2.8617412356855523
mp-753540,Li2FeSi3O8,3.311,-7.674894180357143,-2.807214960833332
mp-758277,Li2CrSi3O8,3.3157,-7.8175326907142875,-2.865351595476191
mp-767149,Li2FeSi3O8,2.8385,-7.657701023928571,-2.790021804404761
mp-863431,Li2Si3NiO8,3.7977,-7.399817226785714,-2.7242726165476183
mp-1197100,Ca4Si3H2O11,4.7044,-7.40090604425,-3.125093167125
mp-558347,K4Ba(SiO3)3,4.2288,-6.83850267264706,-2.882499321705883
mp-560535,K4Sr(SiO3)3,4.1609,-6.846956701470588,-2.904279635823529
mp-976307,K4Ba(SiO3)3,4.6722,-6.824967961176471,-2.868964610235294
mp-1019744,K2Al2Si3O10,4.3747,-7.632310934705883,-3.190578273205883
mp-1196701,Na2Al2Si3O14,0.1052,-6.790106769523809,-2.231916227750409
mp-1196501,Al2Si3(NO5)2,0.0,-7.285444007941177,-1.995839814411764
mp-1199876,K2Al2(SiO4)3,0.0,-7.119902325,-2.624882469447368
mp-1202442,Na2Al2Si3O14,0.9331,-6.841384465238095,-2.283193923464695
mp-1201495,Cs2Al2Si3O10,4.5001,-7.623248016176469,-3.207796784371195
mp-1196415,Li2Al2(SiO4)3,0.5507000000000001,-7.231049394736842,-2.654181839824561
mp-1196695,Na2Al2(SiO4)3,0.5721,-7.137635651578948,-2.620473579618875
mp-1221477,Na2Al2Si3O10,4.0793,-7.583505307647059,-3.117025463103449
mp-1204609,Na2Al2Si3O14,1.465799999999999,-6.862542927380952,-2.304352385607552
mp-975622,Rb2Al2Si3O10,4.6713000000000005,-7.62314723117647,-3.199159940294118
mp-860893,Li2Fe2Si3O10,3.0445,-7.6646227352941185,-2.5755961298039223
mp-1020141,Na2Al2Si3O10,4.4513,-7.594582087941177,-3.128102243397567
mp-1105620,Na4Sr(SiO3)3,4.4214,-6.864589044117647,-2.872417612383368
mp-1219617,RbAlSi3O8,4.784800000000001,-7.899047174999999,-3.238604710961538
mp-1221806,Na2Ca2(SiO3)3,4.4105,-7.3766084853125005,-3.157718207047414
mp-1221869,Na2Be3Si3O8,0.055200000000000006,-6.69784592375,-2.337763281109914
mp-1223613,KAlSi3O8,4.7471,-7.910047316538462,-3.238002110173077