Material_ID,Formula,Band_Gap,Energy_per_Atom,Formation_Energy_per_Atom
mp-1244945,SiO2,5.016999999999999,-8.259020583333333,-3.15194057
mp-1244965,SiO2,1.5998,-8.196538689803921,-3.089458676470588
mp-1244968,SiO2,2.9151,-8.127813710882354,-3.020733697549019
mp-1245026,SiO2,1.9065,-8.215632027156863,-3.108552013823529
mp-1391176,SiO4,0.1484,-5.563840684,-0.520408273999999
mp-1398433,SiO2,0.0,-3.71263648,1.394443533333332
mp-556788,SiO2,4.7965,-8.1328629025,-3.025782889166667
mp-556994,SiO2,5.3836,-8.291633589166667,-3.184553575833334
mp-556985,SiO2,5.6098,-8.32682709,-3.219747076666666
mp-557004,SiO2,5.5806000000000004,-8.35906950888889,-3.251989495555557
mp-556588,SiO2,4.0078,-8.071059518333334,-2.9639795049999993
mp-557873,SiO2,5.6607,-8.314388378333332,-3.207308364999999
mp-556319,SiO2,5.2035,-8.252137914166665,-3.145057900833333
mp-556880,SiO2,5.0612,-8.2283166,-3.121236586666666
mp-663422,SiO2,4.3608,-8.163978284166665,-3.056898270833333
mp-685105,SiO4,0.38920000000000005,-6.204206068,-1.160773658
mp-685184,SiO2,0.0,-7.97454523588889,-2.867465222555556
mp-733790,SiO2,5.5868,-8.37333785972222,-3.266257846388887
mp-936187,SiO4,0.0,-4.667933372666667,0.375499037333332
mp-560708,SiO2,5.819199999999999,-8.3645606625,-3.257480649166666
mp-559360,SiO2,5.7962,-8.3628137575,-3.255733744166666
mp-557894,SiO2,5.9287,-8.358395628541667,-3.2513156152083322
mp-560152,SiO2,5.6007,-8.276285574375,-3.169205561041666
mp-600001,SiO2,5.7968,-8.343289207,-3.236209193666667
mp-561291,SiO2,5.2477,-8.228157815,-3.121077801666666
mp-558200,SiO2,5.642899999999999,-8.307292087083333,-3.20021207375
mp-639682,SiO2,5.7946,-8.345149994666667,-3.238069981333334
mp-600067,SiO2,5.8489,-8.346470465119047,-3.239390451785713
mp-644923,SiO2,5.72,-8.363062254791666,-3.255982241458333
mp-1179488,SiO2,0.141899999999999,-7.279516080952381,-2.172436067619048
mp-1199998,SiO2,5.5867,-8.353463299824561,-3.246383286491228
mp-1248957,SiO2,5.7415,-8.358331428541666,-3.251251415208333
mp-1249637,SiO2,5.6978,-8.359850142559523,-3.25277012922619
mp-18280,SiO2,5.7361,-8.36411376361111,-3.257033750277777
mp-17279,SiO2,5.7151,-8.359571382708333,-3.252491369375001
mp-34150,SiO2,0.921899999999999,-8.032937410625,-2.925857397291666
mp-558564,SiO2,5.683,-8.314411589444445,-3.207331576111112
mp-558301,SiO2,5.6614,-8.167376876875,-3.060296863541667
mp-558351,SiO2,5.626799999999999,-8.35973999,-3.252659976666665
mp-662706,SiO2,5.611800000000001,-8.36553570845238,-3.258455695119047
mp-615993,SiO2,5.5053,-8.362427325,-3.2553473116666662
mp-667383,SiO2,5.5383,-8.365796423690476,-3.258716410357143
mp-680204,SiO2,5.6096,-8.365960794848483,-3.25888078151515
mp-557930,SiO2,5.8743,-8.347921994583333,-3.24084198125
mp-560131,SiO2,5.7724,-8.282490830416666,-3.175410817083333
mp-546794,SiO2,5.689599999999999,-8.374263906666666,-3.267183893333333
mp-600006,SiO2,5.523499999999999,-8.3457588985,-3.238678885166666
mp-638038,SiO2,0.0,-7.1277621149999995,-2.020682101666666
mp-2374583,SiO2,5.0006,-8.220262980833333,-3.1131829675000002
mp-560754,SiO2,1.359999999999999,-7.845271967708332,-2.738191954374999
mp-557017,SiO2,2.5295,-7.853220760416666,-2.746140747083333
mp-600076,SiO2,5.5245,-8.346097506583334,-3.239017493250001
mp-556564,SiO2,0.30200000000000005,-7.2899111208333345,-2.1828311075
mp-1203655,SiO2,5.4771,-8.349139429375,-3.242059416041667
mp-558203,SiO2,6.021100000000001,-8.291007443333333,-3.183927429999999
mp-558947,SiO2,5.7972,-8.364486729652777,-3.2574067163194442
mp-600015,SiO2,5.8166,-8.360698042222221,-3.253618028888889
mp-600072,SiO2,5.8422,-8.360302458958333,-3.253222445625
mp-545488,SiO2,0.334499999999999,-7.676749337499999,-2.569669324166666
mp-560155,SiO2,5.8378,-8.352796545555556,-3.245716532222223
mp-554755,SiO2,5.606400000000001,-8.356558924270834,-3.2494789109375
mp-639480,SiO2,5.6227,-8.34390342388889,-3.236823410555556
mp-600002,SiO2,5.4674,-8.357677480833333,-3.2505974675
mp-600080,SiO2,5.6971,-8.351810187760416,-3.244730174427083
mp-554665,SiO2,5.0136,-8.17499388875,-3.067913875416666
mp-559347,SiO2,5.3784,-8.361268253541667,-3.254188240208333
mp-555556,SiO2,5.774,-8.364001525208334,-3.2569215118750012
mp-6947,SiO2,5.0337,-8.178200243333333,-3.071120229999999
mp-600109,SiO2,5.5665,-8.349604332222222,-3.242524318888889
mp-1179454,SiO2,5.5301,-8.361072283333334,-3.25399227
mp-555211,SiO2,5.6913,-8.360275813125,-3.253195799791667
mp-639734,SiO2,5.449199999999999,-8.358704870833334,-3.2516248575
mp-600085,SiO2,5.6023,-8.356113808333333,-3.249033795
mp-600003,SiO2,5.5474,-8.365457652916666,-3.2583776395833333
mp-639511,SiO2,5.7277000000000005,-8.358818169583333,-3.25173815625
mp-1200292,SiO2,5.700699999999999,-8.363988411215278,-3.256908397881944
mp-1201738,SiO2,5.5295,-8.328358454583332,-3.22127844125
mp-1268079,SiO2,5.6869,-8.359387838697916,-3.252307825364583
mp-32667,SiO2,5.3845,-8.13303279,-3.025952776666666
mp-556882,SiO2,5.6423,-8.369107194791667,-3.262027181458334
mp-556654,SiO2,5.606999999999999,-8.367856784999999,-3.260776771666666
mp-669426,SiO2,5.537999999999999,-8.372784223333333,-3.26570421
mp-985570,SiO2,5.7565,-8.371430833749999,-3.264350820416666
mp-554175,SiO2,5.8291,-8.275961186249999,-3.168881172916666
mp-554258,SiO2,5.522,-8.362277877083333,-3.25519786375
mp-554543,SiO2,5.6129,-8.35856702875,-3.251487015416666
mp-1179447,SiO2,5.6304,-8.356537974166667,-3.249457960833334
mp-1365799,SiO2,5.793,-8.175438297083334,-3.06835828375
mp-553993,SiO2,5.6424,-8.333278817083334,-3.22619880375
mp-555521,SiO2,5.586699999999999,-8.364394087083333,-3.25731407375
mp-554267,SiO2,5.6328,-8.358268924999999,-3.251188911666666
mp-555700,SiO2,5.5201,-8.362425647083333,-3.25534563375
mp-639705,SiO2,5.5245,-8.348875059000001,-3.241795045666668
mp-600016,SiO2,5.652,-8.36343456125,-3.256354547916666
mp-600078,SiO2,5.623200000000001,-8.350657451296298,-3.243577437962964
mp-555165,SiO2,5.7614,-8.356937275208333,-3.249857261875
mp-1250639,SiO2,5.6677,-8.365025204472223,-3.257945191138889
mp-558569,SiO2,5.738099999999999,-8.301297938055555,-3.194217924722222
mp-558115,SiO2,5.6668,-8.365667661,-3.258587647666667
mp-559389,SiO2,4.3826,-8.122203651111112,-3.015123637777778
mp-559550,SiO2,5.6097,-8.364031135000001,-3.256951121666668
mp-11684,SiO2,5.5458,-8.3661854875,-3.259105474166666
mp-12787,SiO2,5.6273,-8.377139171666666,-3.270059158333334
mp-558733,SiO2,5.29,-8.116219954444444,-3.009139941111111
mp-557837,SiO2,5.6449,-8.3715734,-3.264493386666667
mp-560064,SiO2,5.7215,-8.359907655312501,-3.252827641979166
mp-562490,SiO2,5.599699999999999,-8.359752326666667,-3.252672313333333
mp-651707,SiO2,5.8759000000000015,-8.368051952857144,-3.26097193952381
mp-646895,SiO2,5.6942,-8.360008631145833,-3.252928617812499
mp-7000,SiO2,5.719,-8.379911357222223,-3.27283134388889
mp-640917,SiO2,0.6553999999999991,-5.951826232222221,-0.844746218888888
mp-6930,SiO2,5.6695,-8.379285652777778,-3.272205639444445
mp-546546,SiO2,5.5604,-8.338407914999998,-3.231327901666665
mp-556963,SiO2,5.4127,-8.23030658138889,-3.123226568055556
mp-557194,SiO2,0.0,-7.117902115555555,-2.010822102222222
mp-556464,SiO2,4.035,-8.133972574722222,-3.026892561388889
mp-556044,SiO2,0.0,-6.922545317777778,-1.815465304444444
mp-17909,SiO2,5.8413,-8.358524000555557,-3.251443987222224
mp-559605,SiO2,4.0451,-8.140949648888888,-3.033869635555556
mp-561488,SiO2,2.7733,-7.867150488333332,-2.760070474999999
mp-557076,SiO2,4.0901,-8.089144607777778,-2.982064594444445
mp-557771,SiO2,2.4357,-7.764019234722222,-2.656939221388889
mp-556027,SiO2,2.9032,-7.850721024444444,-2.743641011111111
mp-556812,SiO2,5.0183,-8.084626102777777,-2.977546089444444
mp-638035,SiO2,0.0,-6.549566965555555,-1.4424869522222221
mp-530546,SiO2,5.562,-8.362686847530865,-3.255606834197531
mp-1249090,SiO2,5.7956,-8.357013506078431,-3.249933492745097
mp-555355,SiO2,1.2633,-7.581558126388889,-2.474478113055556
mp-554498,SiO2,0.5051,-7.488995209166666,-2.381915195833333
mp-555823,SiO2,1.235,-7.588772354166666,-2.481692340833333
mp-1257168,SiO2,5.5917,-8.351181326888888,-3.244101313555555
mp-554243,SiO2,5.627,-8.363005045000001,-3.255925031666667
mp-6922,SiO2,5.5311,-8.370834855000002,-3.263754841666668
mp-559273,SiO2,5.66,-8.164621721805554,-3.057541708472222
mp-10851,SiO2,5.5318000000000005,-8.37083800388889,-3.263757990555557
mp-32761,SiO,0.0,-7.2337889,-2.0471493825
mp-557723,SiO2,3.5601000000000003,-8.09929322888889,-2.992213215555555
mp-559091,SiO2,5.4377,-8.3686538825,-3.261573869166666
mp-1250261,SiO2,5.7371,-8.358506635555555,-3.251426622222222
mp-542814,SiO2,5.5504,-8.372427320833332,-3.265347307499999
mp-556961,SiO2,5.4877,-8.371195347916666,-3.264115334583334
mp-1204057,SiO2,5.6518,-8.357327900462964,-3.250247887129631
mp-532105,SiO2,5.559,-8.362559575432098,-3.255479562098765
mp-680222,SiO2,5.5951,-8.34270986798611,-3.235629854652778
mp-8602,SiO2,5.5344,-8.363599531470589,-3.256519518137255
mp-1201887,SiO2,5.5322,-8.361777525972222,-3.254697512638888
mp-557211,SiO2,5.5612,-8.361003591250002,-3.253923577916668
mp-1256614,SiO2,5.7551,-8.359193270555556,-3.252113257222223
mp-1249332,SiO2,5.689,-8.361518644814815,-3.254438631481482
mp-559740,SiO2,5.7109000000000005,-8.321312444166669,-3.214232430833335
mp-559928,SiO2,5.4895,-8.337988537222222,-3.230908523888887
mp-7087,SiO2,5.3645,-8.360704293333333,-3.25362428
mp-560836,SiO2,5.1243,-8.151395228611111,-3.044315215277778
mp-8059,SiO2,5.5887,-8.370538329583333,-3.26345831625
mp-556537,SiO2,4.7217,-8.127806996944445,-3.020726983611111
mp-1204070,SiO2,4.4735,-8.08043679425926,-2.973356780925927
mp-1249969,SiO2,5.6645,-8.3563155005,-3.249235487166667
mp-555960,SiO2,5.4799,-8.117731065208334,-3.010651051875
mp-556262,SiO2,5.974,-8.361094445208334,-3.254014431875001
mp-556469,SiO2,5.696199999999999,-8.363982900416667,-3.256902887083333
mp-683947,SiO2,5.471999999999999,-8.237653260416666,-3.130573247083333
mp-557118,SiO2,5.4995,-8.36083614,-3.253756126666667
mp-600049,SiO2,5.8275999999999994,-8.343753273541667,-3.236673260208333
mp-7648,SiO2,5.424499999999999,-8.367900570833333,-3.260820557499999
mp-558374,SiO2,5.6839,-8.3401562775,-3.233076264166667
mp-9258,SiO2,4.0091,-7.802867330833333,-2.6957873175
mp-555497,SiO2,4.444000000000001,-8.124306575694444,-3.017226562361111
mp-555740,SiO2,5.8478,-8.357606630000001,-3.250526616666667
mp-1200685,SiO2,5.6843,-8.273295178125,-3.166215164791667
mp-556454,SiO2,5.568099999999999,-8.368117294583334,-3.2610372812499993
mp-638049,SiO2,0.0,-6.6351507125,-1.528070699166666
mp-558598,SiO2,0.0,-6.561334766944444,-1.454254753611111
mp-1188220,SiO2,5.451799999999999,-8.363381341666667,-3.256301328333334
mp-600096,SiO2,6.145300000000001,-8.23547652986111,-3.128396516527777
mp-639478,SiO2,5.5639,-8.355252137499999,-3.248172124166666
mp-557591,SiO2,5.7214,-8.308511685972222,-3.201431672638889
mp-557024,SiO2,5.9023,-8.309029261527778,-3.201949248194445
mp-639512,SiO2,5.6882,-8.364695036231883,-3.257615022898549
mp-557814,SiO2,1.4092,-7.6684887136111115,-2.561408700277778
mp-683952,SiO2,1.6131,-7.648278660694444,-2.541198647361111
mp-1021503,SiO2,4.528499999999999,-7.982775308333333,-2.875695295
mp-561301,SiO2,1.9958,-7.88097838173611,-2.773898368402777
mp-10064,SiO2,1.739599999999999,-7.101967823333333,-1.99488781
mp-559962,SiO2,5.677099999999999,-8.338132080555555,-3.231052067222221
mp-600023,SiO2,5.5462,-8.357057848333334,-3.249977835
mp-558931,SiO2,4.6434,-8.111374208958333,-3.004294195625
mp-12350,SiO2,6.220599999999999,-8.240247903333332,-3.133167889999999
mp-32895,SiO2,5.8382000000000005,-8.357991569027778,-3.250911555694444
mp-561090,SiO2,5.618399999999999,-8.359017527058823,-3.25193751372549
mp-8352,SiO2,5.3649000000000004,-8.359360156666666,-3.252280143333333
mp-556257,SiO2,3.6775,-7.960994865833332,-2.853914852499999
mp-600033,SiO2,5.6213,-8.365809549444444,-3.258729536111111
mp-639741,SiO2,5.7283,-8.357771150972221,-3.250691137638888
mp-600005,SiO2,5.4397,-8.35874932875,-3.251669315416666
mp-555791,SiO2,5.847799999999999,-8.333621435069444,-3.226541421736111
mp-556068,SiO2,6.3102,-8.239376824027778,-3.132296810694443
mp-1204026,SiO2,4.1957,-8.068679929305555,-2.961599915972222
mp-600028,SiO2,5.6883,-8.357594827361112,-3.250514814027779
mp-559829,SiO2,6.2211,-8.237597729861111,-3.130517716527777
mp-1256499,SiO2,5.9289000000000005,-8.317762527500001,-3.210682514166667
mp-558891,SiO2,5.6471,-8.366748050833333,-3.259668037500001
mp-683953,SiO2,1.7254,-7.49808265173611,-2.391002638402777
mp-557244,SiO2,5.1733,-8.197374143333333,-3.09029413
mp-639506,SiO2,5.7044999999999995,-8.361005150833334,-3.253925137500001
mp-639733,SiO2,5.6876999999999995,-8.355727586805557,-3.248647573472224
mp-556376,SiO2,2.7482,-7.950885765833333,-2.8438057525
mp-1258196,SiO2,5.6745,-8.367558802450981,-3.260478789117646
mp-553945,SiO2,5.6921,-8.362845122395834,-3.2557651090625
mp-554089,SiO2,5.660399999999999,-8.373153738333334,-3.266073725
mp-16964,SiO2,5.6779,-8.36778251,-3.2607024966666662
mp-557264,SiO2,5.6152000000000015,-8.368712060416666,-3.261632047083333
mp-556218,SiO2,5.5973,-8.367013575277777,-3.259933561944445
mp-561181,SiO2,5.6043,-8.358868186309524,-3.25178817297619
mp-600055,SiO2,5.6413,-8.360898762380954,-3.25381874904762
mp-555891,SiO2,5.3872,-8.366435931666667,-3.2593559183333323
mp-972808,SiO2,5.5882000000000005,-8.3722493275,-3.265169314166667
mp-554573,SiO2,5.6155,-8.37244514,-3.265365126666667
mp-600071,SiO2,5.5552,-8.358453554722225,-3.2513735413888902
mp-554946,SiO2,5.8629999999999995,-8.362846856111112,-3.255766842777778
mp-600091,SiO2,5.697,-8.361202886851853,-3.254122873518519
mp-555251,SiO2,5.6355,-8.3623990875,-3.255319074166665
mp-683970,SiO2,5.3597,-8.2433562503125,-3.136276236979166
mp-1205213,SiO2,5.3103,-8.302522295740742,-3.195442282407409
mp-555676,SiO2,4.5916,-8.125337189583332,-3.018257176249999
mp-556662,SiO2,5.565300000000001,-8.312055324166666,-3.204975310833333
mp-556553,SiO2,5.1327,-8.294209683333333,-3.187129669999999
mp-557134,SiO2,5.4646,-8.284868436666667,-3.1777884233333342
mp-673168,SiO2,3.3979,-7.693526335555556,-2.586446322222222
mp-558366,SiO2,1.382099999999999,-7.5882685004166675,-2.481188487083333
mp-600061,SiO2,5.7108,-8.35839642,-3.251316406666667
mp-600038,SiO2,5.8012999999999995,-8.343302655666665,-3.236222642333333
mp-600007,SiO2,5.680400000000001,-8.35897513111111,-3.251895117777777
mp-639463,SiO2,5.3927,-8.362231103333333,-3.255151089999999
mp-639695,SiO2,5.6186,-8.357328573333334,-3.25024856
mp-667373,SiO2,5.765000000000001,-8.36323009267857,-3.256150079345237
mp-600050,SiO2,5.9005,-8.309817909583334,-3.20273789625
mp-554397,SiO2,1.1882,-7.71665786375,-2.609577850416666
mp-556132,SiO2,4.5112,-8.183128031666666,-3.076048018333332
mp-557465,SiO2,5.6798,-8.366110517083333,-3.259030503749999
mp-667371,SiO2,5.8205,-8.362254853035713,-3.25517483970238
mp-600070,SiO2,5.8759999999999994,-8.356860974479167,-3.249780961145833
mp-558025,SiO2,5.897799999999999,-8.363453555925926,-3.256373542592593
mp-600026,SiO2,5.380199999999999,-8.325005829722222,-3.217925816388888
mp-985590,SiO2,5.7191,-8.3701902525,-3.263110239166666
mp-600022,SiO2,5.7440999999999995,-8.358141834166666,-3.251061820833333
mp-600053,SiO2,5.7235,-8.356999242619048,-3.249919229285715
mp-600083,SiO2,5.8262,-8.359612857611111,-3.252532844277778
mp-561351,SiO2,5.5568,-8.361971072222222,-3.254891058888888
mp-557653,SiO2,4.1137999999999995,-8.077271202499999,-2.970191189166666
mp-10948,SiO2,5.2394,-8.120072246666666,-3.012992233333333
mp-639748,SiO2,5.8721,-8.342647838796298,-3.235567825462964
mp-560203,SiO2,5.7073,-8.350245480277778,-3.243165466944444
mp-1195265,SiO2,5.7794,-8.362259529930556,-3.255179516597223
mp-600024,SiO2,5.882899999999999,-8.355860635416667,-3.248780622083333
mp-600014,SiO2,5.977,-8.362535524444446,-3.255455511111112
mp-600060,SiO2,5.8577,-8.362455925347222,-3.255375912013888
mp-560809,SiO2,5.6711,-8.362973916527778,-3.255893903194445
mp-560920,SiO2,5.7859,-8.362658053958333,-3.255578040625
mp-560941,SiO2,5.771100000000001,-8.363017455625,-3.255937442291666
mp-560826,SiO2,5.4244,-8.362074403055557,-3.254994389722223
mp-560527,SiO2,5.3948,-8.36088269,-3.253802676666667
mp-560973,SiO2,5.6019,-8.345107707222223,-3.2380276938888892
mp-600004,SiO2,5.4299,-8.362613595000001,-3.255533581666667
mp-600063,SiO2,5.9181,-8.362476327083336,-3.2553963137500013
mp-600098,SiO2,5.7534,-8.361966985520832,-3.254886972187499
mp-600052,SiO2,5.4986999999999995,-8.364062115666666,-3.256982102333334
mp-600027,SiO2,5.7489,-8.362768515,-3.255688501666667
mp-600032,SiO2,5.756600000000001,-8.358354574444443,-3.25127456111111
mp-600111,SiO2,5.540699999999999,-8.355205011458333,-3.248124998125
mp-600029,SiO2,5.485200000000001,-8.363127041944445,-3.256047028611111
mp-600039,SiO2,5.5527,-8.339734787777779,-3.232654774444445
mp-639724,SiO2,5.682499999999999,-8.359146723124999,-3.252066709791666
mp-1250551,SiO2,5.6892,-8.361739060535715,-3.254659047202381
mp-600041,SiO2,5.4636,-8.358816836875,-3.251736823541667
mp-600051,SiO2,5.6808,-8.358238359583332,-3.251158346249999
mp-559313,SiO2,5.5709,-8.362040455416667,-3.254960442083334
mp-600045,SiO2,5.4221,-8.35740204125,-3.250322027916667
mp-600065,SiO2,5.3161,-8.354777313472223,-3.2476973001388902
mp-667377,SiO2,5.6195,-8.36018411970238,-3.253104106369047
mp-667376,SiO2,5.6257,-8.362184535773808,-3.255104522440475
mp-560998,SiO2,5.832599999999999,-8.361607236851851,-3.254527223518518
mp-639558,SiO2,5.645099999999999,-8.357623774642857,-3.250543761309524
mp-600068,SiO2,5.666399999999999,-8.340780658,-3.233700644666667
mp-600018,SiO2,5.5607,-8.362686944444444,-3.255606931111112
mp-653763,SiO2,5.5172,-8.356947138690476,-3.249867125357142
mp-556088,SiO2,5.6778,-8.272803080416667,-3.165723067083333
mp-559860,SiO2,4.8159,-8.213882145416667,-3.1068021320833332
mp-556591,SiO2,5.873200000000001,-8.359230249444444,-3.252150236111111
mp-553881,SiO2,3.602,-8.014043859166666,-2.9069638458333333
mp-555411,SiO2,1.6065,-7.822763056666666,-2.715683043333333
mp-555544,SiO2,4.325299999999999,-8.19716387375,-3.090083860416667
mp-555483,SiO2,4.721699999999999,-8.3663644475,-3.259284434166667
mp-15078,SiO2,5.8634,-8.36233094962963,-3.255250936296297
mp-667368,SiO2,5.7667,-8.362172831770833,-3.2550928184375
mp-1071820,SiO2,4.716,-7.937459681666667,-2.8303796683333333
mp-600084,SiO2,5.5358,-8.36036110375,-3.253281090416666
mp-7905,SiO2,4.7646999999999995,-7.957387528333332,-2.850307514999999
mp-555394,SiO2,0.0,-3.590962157083333,1.516117856249999
mp-557933,SiO2,5.5687999999999995,-8.366482701111112,-3.259402687777778
mp-600031,SiO2,5.6567,-8.362959330499999,-3.255879317166667
mp-600057,SiO2,5.7256,-8.355438479583333,-3.2483584662499982
mp-558326,SiO2,5.6066,-8.363176776481483,-3.256096763148149
mp-600000,SiO2,5.4117,-8.363986923333334,-3.25690691
mp-600037,SiO2,5.4615,-8.357017391666666,-3.249937378333333
mp-560336,SiO2,5.5922,-8.361481625416667,-3.254401612083333
mp-557881,SiO2,5.6379,-8.359693105277778,-3.252613091944445
mp-600059,SiO2,5.979699999999999,-8.366502545980392,-3.259422532647059
mp-667448,SiO2,0.9579000000000001,-8.136312936180556,-3.029232922847223
mp-554151,SiO2,5.725199999999999,-8.368011880833334,-3.2609318675
mp-554682,SiO2,5.8482,-8.363394654097222,-3.256314640763888
mp-572283,SiO2,4.9688,-8.214665839166665,-3.107585825833332
mp-1265115,SiO2,5.5062000000000015,-8.248411738333333,-3.141331724999999
mp-555235,SiO2,5.5109,-8.373002564166667,-3.265922550833333
mp-555147,SiO2,5.3545,-8.298502145,-3.191422131666667
mp-640556,SiO2,5.5502,-8.373165642638888,-3.266085629305555
mp-600054,SiO2,5.8369,-8.355968070677083,-3.248888057343749
mp-1179529,SiO2,5.447599999999999,-8.207228633055557,-3.100148619722223
mp-604717,SiO2,5.1726,-8.1932413625,-3.086161349166667
mp-6945,SiO2,5.503699999999999,-8.374540614166667,-3.267460600833333
mp-638033,SiO2,0.210399999999999,-7.6740641425,-2.566984129166666
mp-7029,SiO2,5.5081,-8.374605220833333,-3.2675252075
mp-1353259,SiO2,5.5258,-8.209693892222223,-3.102613878888889
mp-559872,SiO2,5.610600000000001,-8.370503315,-3.263423301666668
mp-560954,SiO2,4.5273,-8.205054911666666,-3.097974898333333