Material_ID,Formula,Band_Gap,Energy_per_Atom,Formation_Energy_per_Atom
mp-758369,Li4Co(SiO3)3,2.9541999999999993,-7.131434979411765,-2.685746078137255
mp-758141,LiFeSi3O8,3.259699999999999,-7.910615821538461,-2.8153399594871793
mp-758639,Li4Fe(SiO3)3,3.188699999999999,-7.245770195,-2.7214575001960792
mp-766702,Li4Si3NiO9,4.051,-7.043593645,-2.677509451960785
mp-777652,Li4Fe3(SiO4)3,0.009800000000000001,-7.377928745454545,-2.437145052424242
mp-780578,Li4Mn(SiO3)3,2.8629,-7.3445544200000015,-2.779536190956728
mp-1182049,CaSi3SnO11,1.0011,-7.16686719421875,-2.371948639218749
mp-1194872,Mg10Si3(O7F2)2,4.7366,-6.808564307258065,-3.276063732741935
mp-695890,Mg10Si3(H2O9)2,5.281600000000001,-6.678099388571429,-2.814538871857144
mp-1019381,Al7Si3BO18,4.9414,-8.098193121551725,-3.331376750488506
mp-1181968,NaBeSi3O8,0.006099999999999,-6.870863883269231,-2.183111900683024
mp-1200284,Al3Si3Pb2O13,0.064099999999999,-7.616431163690477,-2.8896945548809523
mp-555182,Na2Be2(SiO3)3,4.8522,-7.47454512484375,-3.038928223453664
mp-726420,K3HoSi3O10,0.1269,-7.182422529411765,-2.844342954514706
mp-728328,NaBeSi3O8,0.32580000000000003,-7.608991611923077,-2.92123962933687
mp-732195,Ca2Al3Si3O13,0.2732,-7.8621078192857174,-3.297947133333334
mp-737385,K3YSi3O10,0.0,-7.26301395632353,-2.8124983793676472
mp-758516,Li2Fe2(SiO3)3,3.3353,-7.7243857909375,-2.626542585416667
mp-758342,Li2Co2(SiO3)3,2.6661,-7.493938148593751,-2.563170504322918
mp-758546,Li2Co2(SiO3)3,2.867,-7.47699358078125,-2.546225936510417
mp-758830,Li2Fe2(SiO3)3,2.985399999999999,-7.159963057500001,-2.062119851979167
mp-849345,Li2Mn2(SiO3)3,3.0812,-7.9469798871875,-2.762637421408047
mp-831259,Li2Mn2(SiO3)3,3.1064,-7.9323944882812505,-2.7480520225017973
mp-1020641,Rb2Ca2(SiO3)3,4.133500000000001,-7.341122257812501,-3.167380317812501
mp-1220855,NaAlSi3O8,4.9975000000000005,-7.8967252761538465,-3.208499219336869
mp-1223534,KAlSi3O8,5.4583,-7.727958292307692,-3.055913085942308
mp-1196952,CaAl2Si3O13,0.4027,-7.264429861578948,-2.522524667105264
mp-1195158,CaAl2Si3O10,4.541499999999999,-8.028079815625,-3.324810085625
mp-1202493,CaAl2Si3O13,0.5198,-7.285928625526316,-2.544023431052632
mp-1202125,CaAl2Si3O13,0.028799999999999003,-7.16089051236842,-2.418985317894736
mp-1214062,CaAl2(SiO4)3,0.442299999999999,-7.497711084722223,-2.767253435277778
mp-1220919,NaAl3Si3O11,3.533299999999998,-7.860418233888889,-3.233641933132183
mp-1220946,NaAl3(SiO4)3,2.9953000000000003,-7.57556346263158,-2.931882703756807
mp-1223669,KAl3(SiO4)3,2.9985,-7.585241505526317,-2.952631854855264
mp-1222440,Mg3Al(SiO4)3,0.0,-7.277759303947369,-2.8415239342105263
mp-1223735,KAl3(SiO4)3,3.000899999999999,-7.586257094210527,-2.953647443539475
mp-1226735,CsAl3(SiO4)3,3.0296,-7.575243745526317,-2.9543915765607993
mp-1267688,Li3Co2Si3O10,0.9287999999999991,-7.283936780277778,-2.520094214722222
mp-2931674,CaAl2Si3O13,1.273699999999999,-7.215811549999999,-2.473906355526314
mp-758811,Li3Co2Si3O10,0.7239000000000001,-7.272500804722221,-2.508658239166665
mp-766179,LiSi3BiO8,3.5389,-7.546396996730769,-2.803427819294872
mp-766544,Li2Mn2Si3O10,1.2618,-7.8693842232352935,-2.698946549266397
mp-1173829,Na2Ga2Si3(HO3)4,3.6402,-6.668564568152173,-2.408921720011244
mp-1173760,Na2Al2Si3(HO3)4,2.1935000000000002,-6.5480217917391315,-2.22598939511994
mp-1173771,Na4Al3Si3ClO16,0.7576,-6.850725918888888,-2.632374902796934
mp-1173748,Na4Al3Si3NO15,0.37919999999999904,-6.863704042884615,-2.423809523096817
mp-1173828,Na2Al2Si3(HO3)4,2.3865,-6.317383277391305,-1.995350880772114
mp-1173811,Na4Al3Si3NO15,0.5025000000000001,-6.70972862326923,-2.269834103481431
mp-1173846,Na2Ga2Si3(HO3)4,2.4942,-6.149401802826087,-1.8897589546851572
mp-1173847,Na4Al3Si3NO14,1.0507,-6.7720393958,-2.35246753542069
mp-1173860,Na2Al2Si3(HO3)4,3.9066,-6.99649913347826,-2.67446673685907
mp-1212431,K3Al3Si3(WO3)4,0.027299999999999002,-7.369262755000001,-1.68466900587
mp-1223539,KMg3Al(SiO4)3,0.0,-7.229329572499999,-2.958337485112499
mp-1226105,CsAlFe3(SiO4)3,2.0275,-7.9447960365,-2.659040877482758
mp-1227188,Ca4Si3B5(HO4)5,5.4639,-7.521325480000001,-2.8286129189752263
mp-1227468,Ca2MgAl2(SiO4)3,4.839600000000001,-7.8190289495,-3.37981357025
mp-1227205,Ca8Zn4Si3Ge5O28,3.2833,-6.945756144166666,-2.7995524986458333
mp-1227598,Ca4MgAl2Si3O14,4.308999999999999,-7.686275462916666,-3.407465906458332
mp-1227317,Ca4Ti4Si3GeO20,2.969999999999999,-8.351689875,-3.368484574010416
mp-1250508,RbAl3Cd(SiO4)3,2.7977,-7.47851395425,-3.037076059125
mp-1257731,Na2Al2Si3(HO3)4,2.5378,-6.418577817391304,-2.096545420772114
mp-1262187,Nd8AlSi3(NO5)3,1.062299999999999,-7.910739101,-2.664040511333332
mp-1264155,Ca6Al6Si3(HO12)2,0.011599999999999002,-7.373731790609757,-3.073136538231707
mp-2713185,Na2Si3Ge4(SO8)3,1.2182,-6.894852956666667,-2.211029348618296
mp-2713431,Na2Ti4Si3(SO8)3,1.495,-7.823646678888889,-2.776215941766443
mp-2713424,Na2Hf4Si3(SO8)3,3.184299999999999,-8.242029084444445,-2.965520901396073
mp-2713427,Na2Zr4Si3(SO8)3,2.4979,-8.010827815555556,-2.890929454729407
mp-2713485,Na2Si3Sn4(SO8)3,1.022999999999999,-6.864168129166667,-2.248506298896074
mp-2713733,Nb3AlSi3(SO8)3,1.6491999999999991,-7.991662217843138,-2.653674339534314
mp-2713757,Hf2Ta2Si3(SO8)3,1.6296,-8.495567476176472,-2.875263650946079
mp-2713734,Zr2Ta2Si3(SO8)3,1.6095000000000002,-8.370855326764707,-2.833462583887256
mp-2713784,Ta2Si3Ge2(SO8)3,1.370499999999999,-7.7736465200980405,-2.467116881632354
mp-2713836,Ta2Si3Sn2(SO8)3,1.3978000000000002,-7.755186500294118,-2.484742508887256
mp-2713789,Na6Ga8Si3(S3O16)3,2.167399999999999,-6.519054894324325,-2.150157444469945
mp-2713865,YTa3Si3(SO8)3,2.1207,-8.387338050294119,-2.812280078514706
mp-2713868,Hf2Nb2Si3(SO8)3,0.8844999999999991,-8.327061753627452,-2.8106180756127452
mp-2713782,Ta2Ti2Si3(SO8)3,1.7852000000000001,-8.275106741764706,-2.776079211436275
mp-2713840,Nb3GaSi3(SO8)3,1.7675,-7.877283744705883,-2.5603982136764722
mp-2713779,Ta3AlSi3(SO8)3,2.2664,-8.248168856764707,-2.754390757632354
mp-2713861,Ti2Nb2Si3(SO8)3,1.4484,-8.104824304019608,-2.709656920906864
mp-2713797,Ta3InSi3(SO8)3,2.0289,-8.109208210686274,-2.644441937632353
mp-2713837,Na6In8Si3(S3O16)3,1.671799999999999,-6.452632494144144,-2.112807723118592
mp-2713850,Na6Al8Si3(S3O16)3,3.4564999999999992,-6.9375787212612625,-2.491115886812287
mp-2713882,LaTa3Si3(SO8)3,2.1926,-8.329543530588236,-2.80075274689706
mp-2713904,Nb2Si3Ge2(SO8)3,1.529399999999999,-7.606570072254902,-2.403900581004902
mp-2713910,LaNb3Si3(SO8)3,1.630199999999999,-8.075764734313726,-2.702764171446079
mp-2713920,Nb3InSi3(SO8)3,1.6277,-7.855799708431373,-2.546823656200981
mp-2713922,Ta3GaSi3(SO8)3,2.2947,-8.13394489637255,-2.661269144519609
mp-2713947,Na6Y8Si3(S3O16)3,3.5499,-7.488595944009009,-2.743374658749223
mp-2713961,Na6La8Si3(S3O16)3,3.7701000000000002,-7.323282246441442,-2.7481241390194953
mp-2713978,ScTa3Si3(SO8)3,2.3037,-8.381268291764707,-2.811405096308824
mp-2713929,ScNb3Si3(SO8)3,1.686799999999999,-8.127924145490196,-2.713851170857843
mp-2713971,YNb3Si3(SO8)3,1.6027,-8.134437759607843,-2.715170008651962
mp-2714018,Nb2Si3Sn2(SO8)3,0.947099999999999,-7.588422677450981,-2.421838833259804
mp-2714021,Na6Sc8Si3(S3O16)3,3.239199999999999,-7.44196770927928,-2.715840736992467
mp-2714012,Zr2Nb2Si3(SO8)3,1.0904,-8.204738608627451,-2.771206012965687
mp-2714023,Na5Si3Ge4(PO8)3,3.149,-7.045660800683761,-2.520682490448508
mp-2714052,Na5Hf4Si3(PO8)3,4.6967,-8.279835965811966,-3.207764201730559
mp-2714067,Na5Zr4Si3(PO8)3,4.2171,-8.058514435982907,-3.131005584722013
mp-2714161,NaTa4Si3(PO8)3,3.3015,-8.852426097428571,-3.13577267641832
mp-2714175,NaNb4Si3(PO8)3,2.6558,-8.503976092190477,-2.989108100056416
mp-2714224,Na5Ti4Si3(PO8)3,2.5008,-7.873779797350428,-3.013164137200645
mp-2714269,Na5Si3Sn4(PO8)3,2.926199999999999,-7.027291612222223,-2.565231866089534
mp-2714408,Na2TaNb(SiO4)3,3.1327,-8.363911833421053,-3.084798133952208
mp-2714411,Na14Ca8Si3(S3O16)3,2.889199999999999,-6.4991574252032525,-2.525350005957037
mp-2714523,Na14Mg8Si3(S3O16)3,2.87,-6.352791703739838,-2.415582320103378
mp-2714593,Na14Zn8Si3(S3O16)3,2.8293,-6.015165385121951,-2.114124431241589
mp-2716126,Na6In4Si3(SO8)3,0.05620000000000001,-6.437286984583334,-2.274059070644397
mp-2716149,Na6Y4Si3(SO8)3,3.3857,-7.362467065833333,-2.82424737622773
mp-2716138,Na6Al4Si3(SO8)3,3.546599999999999,-6.892338702666667,-2.630470580061063
mp-2716196,Na6Ga4Si3(SO8)3,2.5334000000000003,-6.514755021166667,-2.324634879311063
mp-2716242,Na6Sc4Si3(SO8)3,3.0473,-7.333806343833333,-2.81324889372773
mp-2716262,Na6La4Si3(SO8)3,3.0007,-7.18082057575,-2.799909325644397
mp-677223,NaCaAl3(SiO4)3,3.477299999999999,-7.742576026875,-3.230799311943965
mp-677348,Nd8AlSi3(NO5)3,1.027199999999999,-7.8831836265,-2.6364850368333332
mp-677618,Ca6Al6Si3(HO12)2,0.41730000000000006,-7.357250645731708,-3.056655393353658
mp-677670,Na2Al2Si3(HO3)4,1.822499999999999,-6.267327964782608,-1.945295568163418
mp-677716,RbAl3Cd(SiO4)3,1.8974000000000002,-7.465085468625,-3.0236475735
mp-684868,Na2Al2Si3(HO3)4,2.606199999999999,-6.405185235869566,-2.083152839250375
mp-686681,Ca6Ga6Si3(HO12)2,0.0,-6.826341392682927,-2.630743185304878
mp-686674,Ba2La3Si3O12F,4.1088000000000005,-8.256497604166665,-3.675006665119046
mp-691091,Na2Al2Si3(HO3)4,2.888299999999999,-6.398080172391304,-2.076047775772114
mp-695020,Na4Ga3Si3NO14,0.006500000000000001,-6.116359271599999,-1.782884988120689
mp-720971,Ca12Al11Si3Cl5O32,4.3301,-7.357966499523809,-3.403650273492063
mp-1182601,Ca2Cu2Si3(HO3)4,0.5920000000000001,-6.734470166304347,-2.323958644347825
mp-1196208,Ca2Al2FeSi3O13,0.0,-7.865251180952382,-3.076116905476191
mp-1228303,Ca2Al2FeSi3O13,0.0,-7.5972344352380965,-2.808100159761905
mp-1214361,Ca2Mn3Si3H3O14,1.7368000000000001,-7.692783157199999,-2.603577032701723
mp-1227903,Ca2MnAl2Si3O13,0.0,-7.944185784523809,-3.122099409901476
mp-696360,Ca2Cu2Si3(HO3)4,0.5940999999999991,-6.655381339565218,-2.244869817608696
mp-1214260,Ca2MgAl2Si3O14,0.006399999999999,-7.397309993636363,-2.911845012045453
mp-560937,Na3Si3SnO9F,3.839199999999999,-7.012613317352941,-2.850484511419878
mp-1198448,NaAl3Si3(HO6)2,4.694100000000001,-7.508578134047618,-2.983803500899014
mp-1200795,KAl3Si3(HO6)2,4.8237000000000005,-7.522186722976191,-3.00742880677381
mp-1047872,MgTi2Be3(SiO4)3,0.0030999999999990003,-7.917584015357143,-2.951337406150793
mp-1047879,Ti2Be3Zn(SiO4)3,0.0,-7.7901489575,-2.841555986626984
mp-1048770,CaBe3Co2(SiO4)3,2.8321,-7.676362784166667,-2.764831447738096
mp-1048301,CaTi2Be3(SiO4)3,0.0005,-8.033741446309524,-3.049631510198413
mp-1197457,RbBaSc(SiO3)3,4.9748,-8.013474725166667,-3.344169308333333
mp-1200437,Ca2Zn3Si3PbO12,3.7221,-6.931116051428572,-2.780898727142857
mp-1211711,KNa2Ga3(SiO4)3,3.963199999999999,-6.947275873809524,-2.730581326309935
mp-15539,CaMn2Be3(SiO4)3,4.1417,-8.14789910202381,-3.04316790158867
mp-733680,Mn4Si3AsHO13,2.2148,-8.170961538295456,-2.474925297635189
mp-2716339,Na4ZrTi(SiO4)3,2.8547000000000002,-7.700510667857143,-3.059483910183361
mp-2716573,Na4ZrSi3GeO12,3.295899999999999,-7.319772743730159,-2.8345776128024083
mp-2716376,Na4Si3SnGeO12,3.0664,-6.8551829669841275,-2.586089206294472
mp-2716509,Na4HfSi3GeO12,3.2503,-7.426512787460317,-2.874199161294472
mp-2716347,Na4HfZr(SiO4)3,4.1652000000000005,-7.886385694126985,-3.147182888199234
mp-2716461,Na4TiSi3GeO12,2.8235,-7.247600724841271,-2.793463146929393
mp-2716526,Na4HfTi(SiO4)3,2.812999999999999,-7.804669240079366,-3.096523987167489
mp-2716530,Na4TiSi3SnO12,2.8585000000000003,-7.23438727420635,-2.809461886770663
mp-2716539,Na4ZrSi3SnO12,3.312599999999999,-7.313717163809525,-2.8577342233579652
mp-2716570,Na4HfSi3SnO12,3.3857,-7.41820037984127,-2.895098944151615
mp-686583,Na5Zr4Si3(PO8)3,4.1725,-8.059848452564102,-3.132339601303208
mp-1202104,KCa7Si3(O4F)3,4.7135,-7.212682408076923,-3.498697325086538
mp-2716353,Na4ScNb(SiO4)3,2.5940000000000003,-7.632124840634921,-2.991546583040504
mp-2716355,Na4YNb(SiO4)3,2.519999999999999,-7.615369852063493,-2.966381004230981
mp-2716303,Na4TaGa(SiO4)3,3.5328,-7.396246907460317,-2.828942487000822
mp-2716346,Na4TaAl(SiO4)3,3.5237,-7.577536785793651,-2.976066660215107
mp-2716409,Na4NbGa(SiO4)3,2.653,-7.251968910476191,-2.768741752048441
mp-2716423,Na4NbIn(SiO4)3,2.5044999999999993,-7.206737877777778,-2.736316542167488
mp-2716549,Na4TaIn(SiO4)3,3.1847,-7.349144422857143,-2.794645825215106
mp-2716462,Na4LaNb(SiO4)3,2.286699999999999,-7.501561957460318,-2.927481890342091
mp-2716482,Na4LaTa(SiO4)3,3.0315,-7.639213046904762,-2.98105571775479
mp-2716521,Na4YTa(SiO4)3,3.305399999999999,-7.758712254206349,-3.025646144342091
mp-2716384,Na4NbAl(SiO4)3,2.6686,-7.433020662460318,-2.91562779891352
mp-2716396,Na4ScTa(SiO4)3,3.4989,-7.775033243253969,-3.050377723627805
mp-39140,Na4Al3Si3HO13,4.0558,-7.1487841025,-2.957191427573635
mp-627398,Be3Fe4Si3SO12,1.375599999999999,-7.944526555652174,-2.514606157717391
mp-1227091,Ca4UAl2(SiO5)3,0.0,-7.987144482,-3.295131267799999
mp-2716298,K3NaZr2(SiO4)3,4.2941,-7.758725876587301,-3.116691716736316
mp-2716365,K3NaHf2(SiO4)3,4.6992,-7.956531041984127,-3.180259891656951
mp-2716368,K3NaSi3(GeO6)2,2.409799999999999,-6.758256363333333,-2.490000563006158
mp-2716502,K3NaTi2(SiO4)3,2.6024000000000003,-7.555748711904762,-2.975829658085523
mp-2716393,K3NaSi3(SnO6)2,2.6384,-6.791500994206349,-2.581669574831554
mp-42307,Ba2Ce3Si3O12F,0.20320000000000002,-8.33099691547619,-3.606514152857142
mp-39866,BaSm4Si3SeO12,2.540299999999999,-8.256383337142857,-3.497301570111608
mp-1227873,Ca10Si3S3(O12F)2,4.4312000000000005,-7.242624897619048,-3.163439172321428
mp-1227702,Ca10Si3S3(ClO12)2,4.2895,-7.129791514761905,-3.053716061607142
mp-2899768,Ba2Ce3Si3O12F,1.1212,-15.250193654523809,-3.50749729142857
mp-1214802,Ba2Sm3Si3SeO12,0.0,-8.011424756666667,-3.385657808444941
mp-1214647,BaAl2Si3(W2O5)2,0.0,-7.769138498000001,-1.419227915
mp-1019735,BaNaEu(SiO3)3,0.0,-8.170117958666667,-3.213023907425289
mp-1210458,Na3YSi3(HO2)6,4.9797,-6.7084193436,-2.446149798865517
mp-13791,BaNaNd(SiO3)3,4.822299999999999,-7.928544649833333,-3.339448230758621
mp-720643,K2ZrSi3(HO5)2,4.9328,-7.533227282499999,-2.902319666222221
mp-758597,K2TiSi3(HO5)2,3.1248,-7.429392355,-2.834718550574074
mp-1210338,NaMg3Si3HO10,3.5623,-7.081864243055556,-2.893871942923851
mp-1220863,NaBeSi3HO8,5.197100000000001,-7.520144019821428,-2.924719576080665
mp-23792,NaCa2Si3HO9,4.848599999999999,-7.4507585709375,-3.103527938914332
mp-677029,Ca2MgAl2(SiO4)3,5.1099,-7.828386856500001,-3.389171477250001
mp-706617,Na2AlSi3HO9,4.671099999999999,-7.349724624375001,-2.9352379393130392
mp-707027,CaScSi3HO9,5.101800000000001,-8.091863973666667,-3.25580806975
mp-1227921,Ca3ScFe(SiO4)3,3.0517,-8.124398064625,-3.300859259374999
mp-1227902,Ca3AlFe(SiO4)3,2.9724999999999993,-7.92143036675,-3.22723622525
mp-1214189,Be3Si3C4SO12,1.659899999999999,-6.862260996086955,-1.300402462065216
mp-19309,Be3Fe4Si3SO12,0.0,-7.821886127173914,-2.391965729239131
mp-23145,Na4Al3Si3ClO12,4.697500000000001,-7.172592010869565,-3.081129688500749
mp-18554,Mn4Be3Si3SeO12,3.1871,-8.271500822173914,-2.749166153002953
mp-17493,Be3Cd4Si3SO12,0.9984000000000001,-6.705833550434783,-2.582002025543478
mp-1210341,Na4Al3Si3NO12,0.0,-7.134462638695652,-2.760837660457271
mp-17167,Be3Cd4Si3TeO12,3.125,-6.639369769347826,-2.558801447681159
mp-1210353,Na4Al3Si3SO16,0.0,-7.154409261851851,-2.851249989926564
mp-16793,Be3Cd4Si3SeO12,2.499399999999999,-6.67448494326087,-2.578585944014945
mp-18320,Mn4Be3Si3TeO12,3.1768,-8.224552960652174,-2.717548969060469
mp-19314,Mn4Be3Si3SO12,3.3366,-8.31095301652174,-2.760685821705397
mp-1214863,Al3Si3Ag4IO12,2.364,-6.8679749636956515,-2.529541182463767
mp-23656,Na4Ga3Si3ClO12,4.2889,-6.680228927826088,-2.682350928174663
mp-23147,Na4Al3Si3BrO12,4.793100000000001,-7.142491078913044,-3.060228327196402
mp-23648,Li4Al3Si3ClO12,5.453399999999999,-7.312399488695652,-3.122293324927536
mp-23659,Na4Ga3Si3BrO12,4.2352,-6.648136957391304,-2.659458528392054
mp-23655,Na4Al3Si3IO12,4.151299999999999,-7.105674053260869,-3.02832147197901
mp-557112,Li4Ga3Si3IO12,3.6307,-6.765639042391298,-2.68322694242753
mp-6856,Be3Zn4Si3SO12,4.2033,-6.864952563043479,-2.688993486847827
mp-40226,Na4Ga3Si3IO12,3.6096999999999992,-6.608191931086957,-2.624423672522488
mp-556649,Li4Ga3Si3BrO12,4.1359,-6.802683419999994,-2.715361149601443
mp-554203,Li4Ga3Si3ClO12,4.5903,-6.831817705000001,-2.735295863949276
mp-23149,K4Al3Si3ClO12,4.5823,-7.162241189347826,-3.107361659304348
mp-704536,Be3Fe4Si3SeO12,3.1008,-7.774029427608696,-2.372041555319293
mp-704630,Be3Fe4Si3TeO12,3.2469,-7.7291584665217385,-2.342501271811593
mp-1194952,Ba2In2Si3SO10,2.892,-7.291199607638889,-2.8884095479629632
mp-1173714,Na4Al3Si3NO14,2.798899999999999,-7.2727139002,-2.85314203982069
mp-1173789,Na4Al3Si3H3O14,0.9357000000000001,-6.7795958324074075,-2.618984051639527
mp-694964,Na4MnAl3Si3O16,1.7958,-7.255524198333334,-2.766303603275862
mp-720111,Na4Al3Si3ClO16,0.3063,-6.830021253148147,-2.611670237056193
mp-1209704,Rb2Na2Al3(SiO4)3,0.0,-7.136027041818181,-2.975448708079936
mp-1203545,Na2Al3Si3NO13,0.0,-7.1530942671590925,-2.477735451375393
mp-1019531,BaAl2Si3(NO)4,3.5521000000000003,-8.013257657857142,-2.382469394285714
mp-559184,Zn2Si3Pb4SO15,3.6073,-6.8008359994,-2.3206838300999992
mp-699146,Mg3AlFe(SiO4)3,2.450999999999999,-7.520687442000001,-2.88276278025
mp-706243,Al2Si3H8(NO5)2,4.9127,-6.881981609500001,-2.198597497500001
mp-677078,Ca11AlSi3ClO18,3.5848,-7.295442368235293,-3.383825799117646
mp-1173798,Na2Al2Si3(HO3)4,4.538200000000001,-7.006581835,-2.68454943838081
mp-1183012,Al2Si3H8(NO5)2,4.5025,-6.8765292418,-2.1931451298
mp-1210489,Na2Al2Si3(HO5)2,2.5502000000000002,-6.921797749473685,-2.568087737118875
mp-510599,Na2Al2Si3(HO3)4,3.4775,-6.44932546,-2.12729306338081
mp-1212051,K2Al2Si3(HO5)2,3.2234,-6.942998123684211,-2.611430327736842
mp-1221210,Na4Al3Si3ClO12,4.338900000000001,-7.148469224782609,-3.057006902413793
mp-695170,Nd3Al3Si3(NO6)2,3.8758,-8.369871635217391,-3.245123312282608
mp-1227600,CaZrSi3H4O11,4.6716999999999995,-7.522790205999999,-2.780915635499999
mp-1226647,Cr3Si3Pb10(ClO12)2,1.4457,-6.8718626797619065,-1.995441140714286
mp-42163,Ca10Si3S3(ClO12)2,4.4998000000000005,-7.131588357380952,-3.055512904226189
mp-676449,Na4Al3Si3NO13,0.8339000000000001,-7.189498344166668,-2.791942698146552
mp-23915,Ca2Al3Si3HO13,5.2562,-7.783938266477273,-3.2729136826704552
mp-24802,Sr2Al3Si3HO13,5.127800000000001,-7.7549170742045455,-3.272362653125
mp-556001,NaBeSi3HO8,5.2827,-7.521285516964285,-2.925861073223522
mp-758527,K3ErSi3(HO5)2,4.9166,-7.097016249342105,-2.859767565355263
mp-759928,K3TbSi3(HO5)2,4.8809000000000005,-7.091889844078946,-2.850949327811403
mp-758551,K3EuSi3(HO5)2,0.08599999999999901,-7.255620689736842,-2.717298684434211
mp-1219624,RbNa2Al3Si3O13,0.18829999999999902,-7.264651051363637,-2.923735129784483
mp-557516,K2Be2Zn2Si3O11,3.504699999999999,-6.958147727999998,-2.809918850974998
mp-699464,Ca3Be2Si3(HO6)2,5.168799999999999,-7.4523457,-3.091552772840909
mp-1134064,Be3Fe4Si3TeO12,3.2723,-7.909116112608695,-2.52245891789855
mp-1173733,Na2Al2Si3(HO3)4,4.363300000000001,-6.9905600015217395,-2.668527604902549
mp-1199031,Na2Al2Si3H6O13,4.4745,-6.750609205,-2.475800012509947
mp-1194858,CaAl2Si3(HO3)4,4.8957000000000015,-7.300105410454545,-2.812427981136363
mp-1203998,CaAl2Si3H6O13,4.7048,-7.0376153604,-2.6189274673
mp-1214322,CaAl2Si3W3O10,0.17569999999999902,-7.907969441842106,-1.9013006855263161
mp-1202683,CaAl2Si3H6O13,4.8424,-7.041990805,-2.623302911899999
mp-1220920,NaAl3Si3(HO6)2,4.573499999999999,-7.505298201904762,-2.980523568756157
mp-1223717,KAl3Si3(HO6)2,4.5629,-7.5153111330952385,-3.000553216892856
mp-1221208,NaMgAl3Si3O16,0.2646,-6.807805467708333,-2.238961782140804
mp-2713181,Mg2Ta4Si3(SO6)6,2.239,-7.862792855392158,-2.5694328970457523
mp-2713513,Mg2Nb4Si3(SO6)6,1.607899999999999,-7.639361819117648,-2.484482057058823
mp-2713480,Ca2Ta4Si3(SO6)6,2.2252,-7.910871228333335,-2.60280029488889
mp-2713435,Nb4Zn2Si3(SO6)6,1.7409,-7.493117092843138,-2.352775621176471
mp-2713482,Ta4Zn2Si3(SO6)6,2.3306,-7.715535366764707,-2.436713698810459