Material_ID,Formula,Band_Gap,Energy_per_Atom,Formation_Energy_per_Atom
mp-764791,Li2Mn(SiO3)2,3.585499999999999,-7.673156962272728,-2.8078603154179733
mp-765980,Li4CuSi2O7,0.155199999999999,-6.643659061071429,-2.556426115952381
mp-767687,Li4Si2NiO7,3.7315,-6.830975237142857,-2.623675862738094
mp-777840,LiFe(SiO3)2,3.2793,-7.821385737,-2.729651120333334
mp-1212196,Rb2Nb2Si2O11,0.5723,-7.687909632205881,-2.544269318088234
mp-1211926,Rb2Ta2Si2O11,0.516699999999999,-8.039392998455881,-2.688032389906862
mp-1202769,Rb2Nb2Si2O11,0.5739000000000001,-7.688883143970588,-2.545242829852941
mp-1044922,Al4V13Si2(SbO14)2,0.019899999999999002,-8.394057390204082,-2.460901698163265
mp-1133351,Na3Zr2Si2PO12,4.498,-7.9761960825000005,-3.138085820439039
mp-1133317,Na3Zr2Si2PO12,0.0,-7.977903758375,-3.139793496314039
mp-1211173,Na3Ce4Ti2(SiO12)2,0.30400000000000005,-7.348093705428572,-2.400503818880131
mp-1211212,Na2Ti2Si2H2O9,2.4419,-7.300133965441176,-2.556190225848546
mp-1191292,LiAlSi2HO7,0.29410000000000003,-7.300206659583334,-2.7555376403819443
mp-1210399,Na2Ti2Si2H2O9,2.094,-7.231541935294118,-2.487598195701487
mp-1223448,LaCeSi2(BO5)2,0.3406,-8.678798204583334,-3.393674040416666
mp-1229240,Ca3Ti3Si2GeO15,2.8822,-8.306538877187501,-3.331690765520834
mp-1233321,CaV2Zn2(SiO5)2,1.7289999999999992,-7.518100818235293,-2.634386385882353
mp-1234637,CaV2Zn2(SiO5)2,1.9263,-7.532082293529411,-2.648367861176471
mp-1234721,MgV2Zn2(SiO5)2,1.7481,-7.4589234376470595,-2.5972754679411763
mp-1235640,LiV2Zn2(SiO5)2,1.3528,-7.421223206470588,-2.543195657254902
mp-1236536,LiV2Zn2(SiO5)2,0.0,-7.346770826470588,-2.468743277254902
mp-1249890,LiAlSi2H2O7,2.5579,-6.694528898461538,-2.238283154679486
mp-1257812,Y4Ti13Si2(SbO14)2,0.0,-8.858466883673469,-3.015011600068026
mp-2215850,MgV2Zn2(SiO5)2,1.859999999999999,-7.439279816470588,-2.577631846764705
mp-2215933,MgV2Zn2(SiO5)2,1.9182000000000001,-7.458587957647059,-2.596939987941176
mp-2215900,MgV2Zn2(SiO5)2,1.6339000000000001,-7.381653104117647,-2.520005134411763
mp-2226934,MgFe2Si2SbO9,1.9374000000000002,-7.493404694,-2.287951441999999
mp-2228781,K6MgCu(SiO4)2,0.456499999999999,-5.607599542777778,-2.110254036027777
mp-2229162,MgZn2Fe2(SiO5)2,2.377799999999999,-7.132931851764706,-2.343505630294117
mp-2229691,MgZn2Co2(SiO5)2,0.7422000000000001,-6.801003843529411,-2.168825209117646
mp-2228927,MgTi2Zn2(SiO5)2,0.0,-7.490113787647059,-2.7682792359803923
mp-2229044,MgZn2Co2(SiO5)2,1.0573,-6.814012834117647,-2.181834199705882
mp-2232098,Rb4MgCuSi2O7,0.0,-5.935262587333333,-2.259384182666666
mp-2232245,MgFe2Si2BiO9,1.8135,-7.480101666666667,-2.290579543333334
mp-2232393,MgFe2Si2BiO9,1.803099999999999,-7.604778732,-2.415256608666666
mp-2242239,MgFe2Si2SbO9,1.8731,-7.6437652346666685,-2.438311982666667
mp-24104,LiAlSi2H2O7,4.858,-7.227418582307692,-2.77117283852564
mp-2715710,TaNbSi2SO12,3.105,-8.544568529117647,-2.87793557204902
mp-39123,Na3Zr2Si2PO12,4.2314,-7.967201679,-3.129091416939039
mp-532695,Na3Zr2Si2PO12,4.5392,-7.9837865919999995,-3.145676329939038
mp-677437,Na3Zr2Si2PO12,4.4153,-7.965649320750001,-3.127539058689039
mp-684746,LiAlSi2H2O7,2.8647,-6.647693066538461,-2.191447322756409
mp-686312,Na3Zr2Si2PO12,4.3726,-7.974233482625,-3.136123220564039
mp-695119,Na3Zr2Si2PO12,4.4926,-7.980011291249999,-3.141901029189038
mp-695112,Na3Zr2Si2PO12,0.0,-7.97361082875,-3.135500566689039
mp-695354,Na3Zr2Si2PO12,4.452800000000001,-7.977724467,-3.139614204939039
mp-698018,LiAlSi2H2O7,3.9817,-7.142798198461539,-2.686552454679487
mp-725003,Na3Zr2Si2PO12,0.0,-2.888365284375,1.949744977685961
mp-732188,Na3Zr2Si2PO12,0.0,-4.898146212125,-0.060035950064038
mp-742054,Na3Zr2Si2PO12,0.0,-4.26734473025,0.57076553181096
mp-558848,Ba2MnSi2ClO7,1.4732999999999992,-7.716787507884614,-3.075644051956232
mp-1200625,BaTiMn2(SiO5)2,0.0,-8.435296468125,-2.905999989949713
mp-1202235,BaTiFe2(SiO5)2,0.0,-8.213695594375,-2.770898376458333
mp-1218288,SrMn2Si2(H2O5)2,0.8719999999999991,-7.281519072105262,-2.337973254255897
mp-866298,BaNaScSi2O7,4.5947,-7.9286905008333335,-3.338729840948275
mp-1173815,NaCaAlSi2O7,3.819699999999999,-7.505783607708333,-3.124178642406608
mp-686526,NaCaAlSi2O7,3.9356,-7.41491041375,-3.033305448448275
mp-2230127,MgTi2Si2(Ag2O5)2,0.0,-6.842017053157895,-2.151309112543859
mp-2230303,Na4MgTi2(SiO5)2,0.0,-7.052229007894736,-2.6775667303781
mp-1044336,Al4Cu13Si2(SbO14)2,0.0,-6.3850223942857145,-1.7743379716326522
mp-1044109,Al4Si2Sn13(SbO14)2,1.2321,-6.700700060816326,-2.113796303367346
mp-1044636,Y4Cu13Si2(SbO14)2,0.0,-6.650087757959183,-1.813810219387753
mp-1044904,Y4Si2Sb2W13O28,0.0514,-8.891812759795918,-1.705208562448978
mp-1044552,Al4Co13Si2(SbO14)2,1.8638,-7.48599055122449,-2.070311625510204
mp-1044564,Al4Si2Ni13(SbO14)2,2.347699999999999,-7.076074138163266,-2.019428692448979
mp-1044607,Y4Mn13Si2(SbO14)2,0.9658000000000001,-8.683999759591837,-2.504528096798029
mp-1044157,Y4Si2Sn13(SbO14)2,1.5179,-6.999646429387755,-2.187149556020407
mp-1044612,Y4Co13Si2(SbO14)2,1.633599999999999,-7.716658416734694,-2.07538637510204
mp-1044158,Ti13Al4Si2(SbO14)2,0.0,-8.41333362,-2.795471452312924
mp-1044864,Al4Cr13Si2(SbO14)2,0.790199999999999,-8.490416489591837,-2.406264099591836
mp-1044649,Y4Si2Ni13(SbO14)2,2.133599999999999,-7.29342312122449,-2.011184559591836
mp-1044807,Y4Cr13Si2(SbO14)2,0.0,-8.723115130204082,-2.413369624285713
mp-1133344,Al4Fe13Si2(SbO14)2,0.30509999999999904,-7.762143959795919,-1.9918556795918372
mp-1192520,CaAlCuSi2O9,0.0,-7.202417133571429,-2.5429408846428583
mp-1193263,BaMn2FeSi2O9,0.023299999999999002,-8.280841767333333,-2.674487644724139
mp-1200668,Cu2Si2Pb7(S2O13)2,0.38360000000000005,-6.542754136341464,-1.9028028365853662
mp-1211032,MgU2Si2(HO3)4,0.33740000000000003,-7.784728787142858,-2.640913362857143
mp-1233123,MgFe4Si2Sn7O16,0.0,-6.976505363333333,-1.8566530306666662
mp-1348593,Y4Fe13Si2(SbO14)2,0.0,-7.654487098775511,-1.6586057026530612
mp-1353589,Y4Ti13Si2(SbO14)2,0.0,-8.740650157959184,-2.8971948743537412
mp-560653,RbNaLi6(SiO4)2,4.7495,-6.183373101111111,-2.61614442604885
mp-560917,Mn13Al4Si2(SbO14)2,1.0468,-8.44114825632653,-2.487269709451091
mp-628617,Cs4K2Cu(SiO4)2,0.31760000000000005,-5.824020723235294,-2.269421870477687
mp-1212763,FeSi2C4(Cl3O2)2,3.6628,-6.227695466470588,-1.103084688823529
mp-1215077,CaU2Si2(HO3)4,0.05569999999999901,-7.825059235119048,-2.663380483928571
mp-1229226,Al2CuSi2O8F,0.30200000000000005,-7.421612281607143,-2.85457408125
mp-18959,Y2Be2Fe(SiO5)2,2.1933,-8.549780007941177,-3.296999063823529
mp-559670,KBaYSi2O7,4.6841,-7.965365402708333,-3.378215464562499
mp-604909,Ca4Si2H2CO11,4.8124,-7.404824016875,-2.9388437666250002
mp-721924,CaFe3Si2HO9,1.3944,-7.8587959778125,-2.471726286953124
mp-1103554,BaCa2Mg(SiO4)2,4.9651,-7.524410687857142,-3.381912915357142
mp-560564,Ti6In2Si2P12O49,2.6336999999999993,-8.16748104971831,-2.939626018789403
mp-1192726,NaLiSi2H4O7,4.8696,-6.430155227333333,-2.275643727647508
mp-1202176,LiY3Si2(O4F)2,5.228199999999999,-8.4351653696875,-3.704026231145833
mp-1205119,Ba3NaSi2B7O20,0.41290000000000004,-7.7430639445454545,-2.7835413944104843
mp-1205138,Si2Sn2H41C16O3,1.0981,-5.266859252421875,-0.25788839845703004
mp-559477,Rb5LiSi2NiO8,2.6710000000000003,-6.029326232941177,-2.32191129122549
mp-676991,NaAlSi2H2O7,4.7537,-7.12620042375,-2.713585609817639
mp-698318,CuSi2H18C9O2,2.9652000000000003,-5.5586233821875,-0.2768499425
mp-1208777,Sr3NbGa3(SiO7)2,3.4242,-7.583274719130435,-3.04479787097826
mp-1190340,Ba3TaFe3(SiO7)2,2.5099,-8.216824676521739,-2.8622157146666662
mp-1214038,Ca3NbGa3(SiO7)2,3.4364,-7.606898302173913,-3.027572959673912
mp-31758,Ba3NbFe3(SiO7)2,2.3971,-8.087507127826086,-2.809664361739129
mp-16136,Sr3TaGa3(SiO7)2,3.8537999999999992,-7.714231493913044,-3.098988449992753
mp-12881,Ba3NbGa3(SiO7)2,3.2958,-7.593637341304348,-3.025610904021738
mp-6853,Ca3TaGa3(SiO7)2,3.9122000000000003,-7.737731371304347,-3.081639833036231
mp-1227373,CaAl2Si2(ClO4)2,0.0,-6.988318967333333,-2.746442369999999
mp-541318,CsTi3Si2P6O25,0.0,-8.181562754864865,-3.002185566824657
mp-1208411,Ti3TlSi2P6O25,0.017599999999999002,-8.158611182972974,-2.939680088275419
mp-1213518,CsSi2Mo3P6O25,1.3245,-8.084353809189189,-2.665774613581414
mp-1209312,RbTi3Si2P6O25,0.0,-8.180056678243243,-2.998718503658302
mp-541317,KTi3Si2P6O25,0.0,-8.181309173243244,-2.995894359462356
mp-705894,RbSi2Mo3P6O25,0.3667,-7.021869228648648,-1.601329046496138
mp-1019558,BaSr2Mg(SiO4)2,4.759,-7.474452768571429,-3.376693823214286
mp-1214419,BaCa2Mg(SiO4)2,0.0,-7.504253040714285,-3.361755268214285
mp-556258,Na3BeAl(SiO4)2,4.327500000000001,-7.106262127333333,-2.976630451942528
mp-1199231,Al2Si2H8N2O9,0.9652000000000001,-6.506679235434783,-1.867056463043478
mp-1173092,NaCaGaSi2O7,4.087199999999999,-7.329945405,-3.008130423656609
mp-1215070,CaAl2Si2(WO4)2,0.7341000000000001,-7.869870370666666,-2.146714630666666
mp-1248468,NaCaAlSi2O7,4.2369,-7.5124812414583335,-3.130876276156608
mp-1262161,NaCaGaSi2O7,2.823299999999999,-6.7028788025,-2.381063821156609
mp-698690,NaCaGaSi2O7,3.183,-6.681500072083334,-2.36128471450431
mp-686735,NaCaAlSi2O7,4.359199999999999,-7.457563512916667,-3.075958547614942
mp-1044661,Y4V13Si2(SbO14)2,0.30009999999999903,-8.654792971020408,-2.496044163061225
mp-1193084,BaY2Si2O7F2,5.0182,-8.350285991428573,-3.760912721071428
mp-1193598,RbNaUSi2O9,0.44320000000000004,-7.723804115,-2.7955219745628073
mp-1194712,Pr5Si2Se3O17F,3.9696,-7.706946410535714,-3.016056508941592
mp-1202968,Si2H36C12N6O7,4.1874,-5.596419378650794,-0.38235577119047603
mp-1204438,Cr6CuSi2(Pb5O17)2,0.19229999999999903,-7.047134359433962,-1.797600917547169
mp-1227799,Ca2ZrTi(SiO5)2,3.1228,-8.564903994375001,-3.515864087083335
mp-1227786,Ca2TiSi2SnO10,3.0821,-7.969773411875,-3.204366553020833
mp-1236180,LiV2Zn2(SiO5)2,1.1469,-7.377137897647058,-2.499110348431372
mp-1235244,LiV2Zn2(SiO5)2,1.1521,-7.3892210394117654,-2.511193490196079
mp-1236082,LiV2Zn2(SiO5)2,0.0,-7.36859133117647,-2.490563781960784
mp-1248937,Y4Si2Sb2W13O28,0.0,-8.963836988979592,-1.777232791632652
mp-1256235,Al4V13Si2(SbO14)2,0.5661,-8.399132660204081,-2.465976968163264
mp-18271,Na5Ti2Si2PO13,2.5298,-7.426209721304348,-2.9440710005741773
mp-2229218,MgZn2Fe2(SiO5)2,1.847,-7.138977552941177,-2.349551331470588
mp-2215892,MgV2Zn2(SiO5)2,1.8008000000000002,-7.483187999411764,-2.621540029705881
mp-648117,Si2Os3C12(ClO2)6,2.571399999999999,-7.585949037714286,-1.136135429714287
mp-1196983,Ba2Y3Si2O8F5,4.8235,-8.0557200835,-3.88727956575
mp-24603,CaAl2Si2(H2O5)2,5.187200000000001,-7.118417196052631,-2.728540174736842
mp-1221098,NaCaAlSi2O7,4.605,-7.637227655416666,-3.255622690114941
mp-1180382,Na2MnInSi2O9,0.069899999999999,-6.936631928333333,-2.270837548490422
mp-1214481,CaU2Si2(HO3)4,0.9582,-7.691651382857143,-2.529972631666665
mp-1210586,NaCa2ZrSi2O9,0.137999999999999,-7.826155023,-3.207294604758621
mp-1215045,CaAl2Si2(WO2)4,0.05279999999999901,-7.9347300447058835,-1.360400835294117
mp-1221117,NaCaGaSi2O7,4.1425,-7.33469000375,-3.012875022406609
mp-1216271,Y3ErTi4(SiO9)2,3.1195,-9.23833051160716,-3.681512814226207
mp-1221104,NaCaAlSi2O7,4.562,-7.640941138333333,-3.259336173031608
mp-1218075,SrCaZnSi2O7,4.0192,-7.371247560416666,-3.167569670833332
mp-1218410,SrCaMgSi2O7,4.504,-7.620663657916666,-3.38609190125
mp-1227482,BaSrMgSi2O7,4.522600000000001,-7.606774805833333,-3.379421794166667
mp-1247835,Al4Si2H(O3F)3,5.355500000000001,-7.494243293947368,-3.309963715592105
mp-1251187,Ca5Si2HO9F,2.7934,-6.465780287222222,-2.536930102847222
mp-695314,Ca5Si2HO9F,2.9067,-6.388201059722222,-2.459350875347221
mp-730691,CaU2Si2H12O17,1.9307,-7.028918415,-2.314318699999999
mp-862999,NaSi2BH2O7,3.9917,-7.153378088461538,-2.515085125234305
mp-1213903,CaZn2Si2HO7,2.064,-6.562798944230769,-2.454597664711538
mp-1208675,SrAl4Si2N8O,0.0,-7.31731543375,-1.118593531562501
mp-1192427,Sr3NbGa3(SiO7)2,2.9001,-7.454022984347826,-2.915546136195652
mp-1220706,NaYTi2(SiO5)2,2.9705,-8.63426635625,-3.386013704877873
mp-1221148,Na3Zr2Si2PO12,4.3768,-7.968563043,-3.130452780939039
mp-562568,KHoCoSi2O7,3.1006,-7.7662955400000016,-2.903893123104166
mp-735519,KHoCoSi2O7,3.0358,-7.791378976250001,-2.928976559354166
mp-555089,SrLi4Ca(SiO4)2,5.0666,-6.8967884984375,-3.036285777395833
mp-2230825,Na4MgTi2(SiO5)2,0.0,-7.06523259736842,-2.6905703198517843
mp-559384,BaNaNdSi2O7,4.6624,-7.809059550104166,-3.349459029594108
mp-557968,Ba2Ti2Si2O9F2,3.3266,-8.196347962279411,-3.558764211200981
mp-1182411,Ca2Y2Si2CO16,0.0,-7.025646421304348,-1.970165534673913
mp-505288,CaAl2Si2(H2O5)2,5.039099999999999,-7.116323060526316,-2.726446039210527
mp-541023,CaFe3Si2HO9,0.506699999999999,-7.84461160875,-2.457541917890625
mp-557084,Al2CuSi2O7F2,0.9716000000000001,-7.438431719642858,-3.088115564285714
mp-1214006,CaAl2Si2HO9,0.14929999999999902,-7.230543990666667,-2.6789304517500003
mp-1248272,CaAl2Si2(H2O5)2,4.169700000000001,-6.967569898157894,-2.577692876842105
mp-554376,Y4TiSi2(O3F2)3,2.716699999999999,-8.512339611136364,-3.930646094242425
mp-699257,CaAl2Si2(H2O5)2,4.3611,-6.946289866052631,-2.556412844736842
mp-733653,CaAl2Si2(H2O5)2,5.1385,-7.113895283684211,-2.724018262368422
mp-1020163,Na3Li2Al(SiO4)2,4.051,-6.700649337031249,-2.8242175870815363
mp-1196244,Mn7Zn4Si2(AsO12)2,0.2096,-7.373822360384615,-2.037539623731211
mp-1208188,U2CoSi2(H7O9)2,1.6392,-6.853405762027027,-2.065230058445945
mp-1178743,Y4AlSi2(O2F)5,0.0,-8.133885963181818,-3.60291097159091
mp-1233773,MgFe4Si2Sn7O16,0.0,-6.979423594666667,-1.859571262
mp-1236195,LiEr4Be4(SiO7)2,0.0,-7.9316133016000006,-3.321231713733333
mp-1236263,LiEr4Be4(SiO7)2,0.0054999999999990005,-7.8958964444,-3.285514856533333
mp-1248168,Y4Fe13Si2(SbO14)2,1.4724,-8.22065419755102,-2.224772801428571
mp-2230924,Na4MgTi2(SiO5)2,0.0,-7.064453124210526,-2.689790846693889
mp-2232007,MgTi2Si2(Ag2O5)2,1.0574,-6.95714129631579,-2.266433355701753
mp-818286,BaTiFe2(SiO5)2,1.544,-8.21171632265625,-2.768919104739582
mp-1236794,LiEr4Be4(SiO7)2,0.0,-7.9494381148,-3.339056526933333
mp-1198111,Al2Si2CNO10,0.065899999999999,-7.35839766625,-2.02162635328125
mp-1221039,NaLiAl4(SiO6)2,3.1323,-7.34705255325,-2.924096798985633
mp-24469,CaAl4Si2(HO6)2,4.5346,-7.596414475238095,-3.120014275357142
mp-2712631,Na2Si2Sn2SO12,2.603799999999999,-6.858016999210527,-2.380800527908349
mp-2712636,Na2Ti2Si2SO12,2.6351,-7.7501764912280695,-2.8639157923820333
mp-2712524,Na2Hf2Si2SO12,4.4927,-8.146934559035088,-3.043653121943436
mp-2712744,Na2Zr2Si2SO12,4.1547,-7.929353522807018,-2.974439285715367
mp-2712759,Na2Si2Ge2SO12,2.7706,-6.887860998947369,-2.346070211855717
mp-2713249,Na3Hf2Si2PO12,4.6472999999999995,-8.187731359125,-3.208672257064039
mp-2713211,NaTa2Si2PO12,3.852999999999999,-8.749745876574075,-3.154344903834565
mp-2713308,Na3Hf2Si2PO12,4.6298,-8.184436709916667,-3.205377607855707
mp-2713518,NaNb2Si2PO12,2.9683,-8.411176982962964,-3.011956288297529
mp-2713548,Na3Zr2Si2PO12,4.3381,-7.9711460308749995,-3.133035768814039
mp-2713573,Na3Zr2Si2PO12,4.3583,-7.9706786147500015,-3.132568352689039
mp-2713654,Na3Ti2Si2PO12,2.7102999999999993,-7.78642531025,-3.013535909522374
mp-2713692,Na3Ti2Si2PO12,2.731099999999999,-7.794759459625,-3.021870058897373
mp-2714335,Na4Sc2Si2SO12,4.057,-7.277271752142857,-2.877445608715106
mp-2714374,Na4Y2Si2SO12,3.7148,-7.29414136936508,-2.877494045461138
mp-2714483,Na4Al2Si2SO12,4.1433,-6.864985935396826,-2.711530580064313
mp-2714486,Na4La2Si2SO12,3.4671,-7.118662514920635,-2.851832752445266
mp-2714392,Na4Ga2Si2SO12,3.421299999999999,-6.5053204733333345,-2.420196528238917
mp-2714596,Na4In2Si2SO12,2.9013,-6.429428298730159,-2.369915999270663
mp-2715261,Na3Si2Ge2PO12,3.1536,-6.992181948625,-2.5465389640640392
mp-2715474,Na3Si2Sn2PO12,2.9693,-6.965566927,-2.5812695424390393
mp-2715453,Na3Si2Ge2PO12,3.1574,-6.98765010125,-2.54200711668904
mp-2715487,Na3Si2Sn2PO12,2.9557,-6.9673644335,-2.58306704893904
mp-2230486,Na4MgTi2(SiO5)2,0.22910000000000003,-6.965240273157895,-2.590577995641258
mp-2230649,MgTi2Si2(Ag2O5)2,0.0,-6.772665695263157,-2.081957754649121
mp-1223658,KAl3Fe2Si2(HO6)2,3.5502000000000002,-7.560936138181819,-2.727997927715909
mp-1227381,Ca2TiAlSi2O9F,3.2274,-8.074640255625,-3.515364937708334
mp-1263670,NaCa2TiSi2O8F,3.676199999999999,-7.594534592833333,-3.221428657480842
mp-2712525,Na2ZrTiSi2SO12,2.6344000000000003,-7.83746733377193,-2.916879865803086
mp-2712523,Na2La3TaSi2(SO6)4,2.497899999999999,-7.624107988981482,-2.7487321871784802
mp-2712527,Na2Sc3TaSi2(SO6)4,2.411299999999999,-7.731456497592593,-2.739708862456257
mp-2712531,Na2Sc3NbSi2(SO6)4,1.7181000000000002,-7.655102717314815,-2.712400151696999
mp-2712552,Na2ZrSi2GeSO12,2.6310000000000002,-7.401646989298246,-2.653294477206595
mp-2712532,Na2HfSi2SnSO12,2.9808,-7.5030434192105275,-2.712794465013612
mp-2712554,Na2TaIn3Si2(SO6)4,1.955999999999999,-6.976558472222223,-2.28258545055811
mp-2712543,Na2MgZr3Si2(SO6)4,2.1289,-7.590920728703704,-2.698916508919222
mp-2712530,Na6Mg3TiSi2(SO6)4,1.0137,-6.676174177666667,-2.501365048081896
mp-2712596,Na2Zr3ZnSi2(SO6)4,2.2676,-7.490392092407408,-2.608685828317369
mp-2712569,Na2MgSi2Sn3(SO6)4,0.39529999999999904,-6.7244127296296305,-2.210585907761814
mp-2712592,Na2Hf3ZnSi2(SO6)4,3.064,-7.6632395573148155,-2.664075926558109
mp-2712579,Na6Mg3Si2Sn(SO6)4,1.908799999999999,-6.462525845083333,-2.38486471954023
mp-2712603,Na2ZnSi2Ge3(SO6)4,0.6088,-6.63478422962963,-2.080134030122925
mp-2712628,Na6Mg3ZrSi2(SO6)4,2.373,-6.7132049817500015,-2.522090636831897
mp-2712620,Na2NbGa3Si2(SO6)4,1.735599999999999,-6.948757571574074,-2.281419429497925
mp-2712601,Na6Ca3Si2Ge(SO6)4,1.714,-6.5746943534166675,-2.453562087998564
mp-2712616,Na6Zn3Si2Ge(SO6)4,1.9646000000000001,-6.201685756333334,-2.13649271116523
mp-2712651,Na6Zn3Si2Sn(SO6)4,2.0679,-6.199809583,-2.149952937831897
mp-2712626,Na2CaZr3Si2(SO6)4,1.9857,-7.631801955000001,-2.72937746118774
mp-2712659,Na6Ca3TiSi2(SO6)4,1.0678,-6.779425247250001,-2.57648137779023
mp-2712664,Na2La3NbSi2(SO6)4,1.7794,-7.549751708703703,-2.723420976419221
mp-2712667,Na2TiSi2GeSO12,2.733499999999999,-7.318069545789473,-2.60404380282063
mp-2712663,Na2TaGa3Si2(SO6)4,2.1874000000000002,-7.029335878148149,-2.312952666553481
mp-2712684,Na2Ti3ZnSi2(SO6)4,1.1356,-7.3431799375,-2.5158243911877403
mp-2712682,Na2HfTiSi2SO12,2.5602,-7.94703087263158,-2.9522598046627353
mp-2712680,Na2CaTi3Si2(SO6)4,1.356899999999999,-7.482253434444446,-2.634179658409963
mp-2712683,Na2MgTi3Si2(SO6)4,1.103899999999999,-7.449209765833334,-2.611556263826629
mp-2712698,Na2HfSi2GeSO12,2.766499999999999,-7.512217550614035,-2.689681438522383
mp-2712707,Na2Si2SnGeSO12,2.5301,-6.870473093508773,-2.360969464311857
mp-2712675,Na2ZrSi2SnSO12,2.7729,-7.389468653333334,-2.67340329913642
mp-2712689,Na2Y3TaSi2(SO6)4,2.500099999999999,-7.76464568212963,-2.758179514076629
mp-2712678,Na2CaSi2Ge3(SO6)4,0.0,-6.756196382037037,-2.18082795280811
mp-2712715,Na2TiSi2SnSO12,2.5382,-7.303489636929825,-2.621751051855716
mp-2712714,Na2NbAl3Si2(SO6)4,1.427299999999999,-7.272544004166667,-2.545415878132184
mp-2712724,Na2Hf3MgSi2(SO6)4,2.986899999999999,-7.76505831074074,-2.755596724289591
mp-2712725,Na2NbIn3Si2(SO6)4,0.9225999999999991,-6.896672175462964,-2.25174422331737
mp-2712735,Na6Ca3HfSi2(SO6)4,3.1606,-6.874786135083334,-2.62029984029023
mp-2712733,Na2TaAl3Si2(SO6)4,2.2805,-7.351642335740741,-2.57546914018774
mp-2712732,Na6HfMg3Si2(SO6)4,3.0787,-6.764760998666667,-2.538409443748564
mp-2712740,Na6HfZn3Si2(SO6)4,3.04,-6.502440811,-2.303893736456897
mp-2712761,Na2Y3NbSi2(SO6)4,1.4457,-7.6844517916666675,-2.727030693132184
mp-2712769,Na2HfZrSi2SO12,4.1052,-8.040295524912281,-3.011197687820629
mp-2712789,Na6ZrZn3Si2(SO6)4,2.6644,-6.447427148083334,-2.284117283540231
mp-2712798,Na2CaHf3Si2(SO6)4,2.8086,-7.800943679259261,-2.781061818780333
mp-2712791,Na6TiZn3Si2(SO6)4,1.2711000000000001,-6.410382633166667,-2.263377983956897
mp-2712786,Na6Mg3Si2Ge(SO6)4,1.7103000000000002,-6.465109335250001,-2.3721118097068983
mp-2712803,Na6Ca3ZrSi2(SO6)4,2.333,-6.825641984166667,-2.606392899373564
mp-2712797,Na2MgSi2Ge3(SO6)4,0.706199999999999,-6.740466634537037,-2.175518479335888