Material_ID,Formula,Band_Gap,Energy_per_Atom,Formation_Energy_per_Atom
mp-1205251,Si2BH18C31SO3F23,3.5495,-6.213377315949367,-0.799041857679325
mp-1250755,Si3O7,0.20499999999999902,-7.436456289499999,-2.345288176999999
mp-638900,Si3O7,0.10310000000000001,-7.118120831000001,-2.0269527185
mp-32566,Si3O,0.1592,-6.082379921875,-0.776401148124999
mp-32881,Si3O,0.1885,-6.088392576875,-0.7824138031250001
mp-1219421,Si3O8,0.07060000000000001,-7.183111781363636,-2.104962496818182
mp-1203861,Mg2(SiO3)3,0.0176,-7.424418267857143,-2.848093756071429
mp-29222,Ba2Si3O8,4.8327,-7.97005625403849,-3.377933791730798
mp-556198,Na2Si3O7,4.3057,-7.441233634166667,-2.974973410646551
mp-727913,Y3Si3O11,0.184899999999999,-8.799190007941176,-3.49149591117647
mp-15113,Na2Si3O7,4.6833,-7.36762941375,-2.901369190229884
mp-861258,Mn3Si3O10,1.280399999999999,-8.495281115625,-2.667680489612069
mp-1210042,Nd5Si3O13,0.0,-8.56719410309524,-3.593851992738096
mp-1208437,Tb5Si3O13,0.0,-8.58756002547619,-3.64523786968254
mp-1209689,Pr5Si3O13,0.0,-8.560581312857144,-3.580733482063492
mp-1211451,La5Si3O13,0.0,-8.679592825714286,-3.666284126666667
mp-1214077,Ca5Si3O13,0.0,-7.312086628809525,-2.996493935714286
mp-16981,Sm5Si3O13,0.0,-8.579284383095239,-3.617742581666668
mp-558672,Si3Bi2O9,3.5103,-7.609848457499999,-2.710729046428571
mp-769028,Si3Sb2O9,4.1492,-7.649496117142858,-2.7162385732142873
mp-756888,La2(SiO3)3,4.3297,-8.60639019107143,-3.5578460950000013
mp-1202483,CsSi3O7,0.737599999999999,-7.595694157045455,-2.8848160938322893
mp-1019713,Cs4Si3O8,3.658,-6.7582173595,-2.792113865408046
mp-1101243,V3Si3O10,0.457499999999999,-8.6143312596875,-2.8013761128125
mp-1198381,Si3Pb11O17,1.976,-6.562652065241935,-2.006832421854838
mp-1202749,Ca4Si3O11,0.6341999999999991,-7.520195216388888,-3.146532734999998
mp-1228255,AlSi3O8,0.0,-8.028499157083333,-3.061397660416666
mp-1228295,AlSi3O8,0.0,-8.019060990833333,-3.051959494166666
mp-1344662,AlSi3O8,0.0,-3.134858519166667,1.832242977499999
mp-734368,Ca6Si3O13,0.33929999999999905,-7.437912934545455,-3.227319914772728
mp-756325,La2(SiO3)3,4.419900000000001,-8.536053017142859,-3.48750892107143
mp-852194,La2(SiO3)3,0.0,-5.539342495714286,-0.49079839964285704
mp-1178991,Ti4(SiO8)3,0.0,-7.031427961612903,-1.656944533333333
mp-23331,Si3(BiO3)4,3.897899999999999,-7.265012602368421,-2.464400845000001
mp-1210861,Na(SiO2)3,0.0,-7.555350842625001,-2.824806752762931
mp-1172462,Cr2(SiO4)3,0.5603,-7.659840996764705,-2.074100932647058
mp-1143551,Si3(WO6)2,3.0736,-8.59535467397059,-2.620781343970589
mp-1143703,Si3(TeO6)2,2.438,-7.050651724558824,-2.230763610637255
mp-1143651,Si3(MoO6)2,2.1461,-8.183602079558824,-2.4575558225
mp-555755,Fe5(SiO4)3,2.4392,-8.219954622125,-2.3198750121250002
mp-5802,Mn5(SiO4)3,0.0,-8.603699649875,-2.530621519357758
mp-1222225,Mn7Si3O14,0.032599999999999005,-8.705913468333334,-2.469183668146552
mp-1228240,AlSi3O8,0.0,-8.033171235416665,-3.066069738749999
mp-553897,Ba2Si3O8,4.812799999999999,-7.969278496923077,-3.377156034615385
mp-1204013,Ca2Si3O11,0.0,-7.0734086490625,-2.4037383425
mp-1178317,Fe39Si3O56,0.7038000000000001,-8.07278874122449,-1.708578562040815
mp-555899,Li2Si3O7,5.3594,-7.637983271458332,-3.077189366597222
mp-1180416,Mg10(SiO6)3,0.033100000000000004,-6.752576988387097,-2.828578526129033
mp-1247920,Al8(SiO6)3,1.5203,-7.824444374482759,-3.158794070344829
mp-1198345,Fe5(SiO4)3,1.940599999999999,-8.234703560375,-2.334623950374999
mp-1208172,Y5(SiO4)3,0.0,-8.858203523250001,-3.44835634075
mp-30224,Si3(Cl4O)2,5.5809,-5.237221477115384,-2.086439217115384
mp-1229057,AlSi3O8,0.0,-8.040746504166666,-3.073645007499999
mp-1182622,Ca2Si3O11,0.0,-6.85661922625,-2.1869489196875
mp-1204130,Ca2Si3O11,0.013800000000000002,-6.7845027125,-2.1148324059375
mp-1006613,Na2Al2(SiO4)3,0.0213,-7.116846161315789,-2.599684089355717
mp-1080186,CaAl2Si3O10,3.6394,-7.7363916915625,-3.0331219615625
mp-1177711,Li3Co2Si3O10,0.0,-7.2903973575,-2.526554791944443
mp-1181028,K3Al3Si3O16,0.028700000000000003,-6.5742632668,-2.171296593669999
mp-1181274,K2Al2(SiO4)3,0.38670000000000004,-7.132095386052631,-2.637075530499999
mp-1219641,Si3Ge(PbO2)8,2.254299999999999,-6.618251994285714,-1.983697187678569
mp-1223588,KFe4(SiO4)3,1.924399999999999,-7.938422880500001,-2.4052758448625
mp-1224204,K2ZnSi3O8,3.2442,-7.080864841428571,-2.839284471035714
mp-1225755,Fe7Si3(H4O9)2,1.557599999999999,-7.242727218611112,-1.9152068808333331
mp-1227192,Ca4Si3(BO4)5,0.137,-7.77146161875,-2.876007476119791
mp-1227935,Ca20Si3Ge9O44,3.8254,-7.198015742236841,-3.043996181644735
mp-1236884,CaAl2Si3O10,4.6272,-7.849817053125,-3.146547323125
mp-1347683,Li2FeSi3O8,0.0644,-5.242681547142857,-0.375002327619047
mp-1428949,Na4Sr(SiO3)3,4.0931,-6.857406651176471,-2.865235219442192
mp-753994,Li2MnSi3O8,2.7880000000000003,-7.778884714642857,-2.861777346399836
mp-757127,LiSi3BiO8,3.1310000000000002,-7.534853917692307,-2.79188474025641
mp-766530,Li2Fe2Si3O10,2.3524000000000003,-7.711461865588236,-2.62243526009804
mp-772029,Li2FeSi3O8,3.1557,-7.660416321785713,-2.792737102261903
mp-778793,Li4Fe3(SiO4)3,0.9821000000000001,-7.394090776363637,-2.453307083333333
mp-861290,Li2FeSi3O8,0.0,-2.196426097857143,2.671253121666667
mp-867661,Li2FeSi3O8,3.4226,-7.656804035535714,-2.789124816011904
mp-1194557,BaLu2Si3O10,4.830500000000001,-8.4275587140625,-3.632689089895833
mp-1194834,BaSc2Si3O10,4.758,-8.569547346875,-3.54833001625
mp-1195063,BaDy2Si3O10,4.8053,-8.411128375312499,-3.604172741770831
mp-1195744,BaEr2Si3O10,4.8347999999999995,-8.4180800271875,-3.6174564834375
mp-1197749,BaGd2Si3O10,0.145799999999999,-9.5568524996875,-3.5676785271875
mp-1199870,Ca2Y3Si3O13,0.0,-8.497681611190476,-3.538732972380953
mp-1211175,MgSi3HO12,0.0,-6.320903031176471,-1.575189936838235
mp-1210830,Mn2Al3Si3O14,0.0,-8.007283632272728,-2.77509425799373
mp-1214212,Ca2Al3Si3O13,0.012700000000000001,-7.852591061428572,-3.288430375476191
mp-1214281,Ca2Mn3Si3O14,0.0,-7.974528263181818,-2.654316726990595
mp-554842,Cs5Si3AgO9,2.821499999999999,-6.2897787844444455,-2.501421636385697
mp-560478,BaY2Si3O10,4.8161000000000005,-8.63166802625,-3.588372896250001
mp-6941,Y2Si3N4O3,3.024599999999999,-8.8210105525,-2.363416295416667
mp-1214293,Ca2Al3Si3O14,0.0,-7.639858713181818,-3.058252558181817
mp-1214297,Ca2Fe3Si3O14,0.0245,-7.716112055,-2.490263348181818
mp-1227582,Ca2Al2(SiO4)3,0.0,-7.713294329210527,-3.1262502465789472
mp-1214917,CaBe(SiO4)3,0.0,-6.5792233225,-1.7911939757352942
mp-1041202,Be3Si3(BiO6)2,3.3355,-7.471499078875,-2.739009410625
mp-1041173,Be3Si3(AgO6)2,0.0,-6.940910186875,-2.313130181791666
mp-1041318,Be3Si3(SnO6)2,1.4878999999999991,-7.46513767,-2.72069424725
mp-1041165,Ti2Be3(SiO4)3,0.0091,-8.186737292124999,-3.053701853208333
mp-1041250,Be3Si3(SbO6)2,2.9598999999999993,-7.447330493,-2.69094413175
mp-1041184,Be3Cu2(SiO4)3,0.0,-7.174722656,-2.421315751750001
mp-1047903,Be3Cr2(SiO4)3,1.8397000000000001,-8.154068465749999,-2.8452774814999993
mp-1047811,Be3Si3(MoO6)2,3.8176,-8.170949451999999,-2.742898203749999
mp-1047825,Be3Fe2(SiO4)3,1.450699999999999,-7.881275173000001,-2.69078681475
mp-1047935,Be3V2(SiO4)3,1.8598,-8.155895319625,-2.904018475375
mp-1047959,Be3Si3(WO6)2,3.5641,-8.306341810625,-2.6670425503749993
mp-1048097,Be3Si3(NiO6)2,0.0,-7.434278358624999,-2.512778453374999
mp-1177429,Li4Fe3(SiO4)3,1.7632999999999992,-7.403012440795454,-2.462228747765151
mp-1199416,Eu2CoSi3O10,0.041399999999999,-8.837115157031251,-2.9955398639062523
mp-1211776,KTiSi3O11,0.5903,-7.43187485359375,-2.448725673317708
mp-1264218,Li2Mn2(SiO3)3,3.296,-7.954348579375,-2.770006113595546
mp-1250945,Mn2Be3(SiO4)3,0.22390000000000002,-8.012974505,-2.753286738543104
mp-1267034,Be3Si3(SnO6)2,2.3258,-7.479601840624999,-2.735158417875
mp-1268159,Li2Fe2(SiO3)3,3.307299999999999,-7.74189595234375,-2.644052746822916
mp-14630,Y3Si3O10F,5.383500000000001,-8.82318327617647,-3.693966157647059
mp-16164,Dy3Si3O10F,5.2743,-8.513886128823529,-3.718324769999999
mp-16165,Ho3Si3O10F,5.2841000000000005,-8.51426276,-3.722353647647058
mp-542038,Er3Si3O10F,5.271800000000001,-8.516206118088235,-3.729584180147058
mp-557123,Na2CuSi3O8,0.922199999999999,-7.168012862142857,-2.693563550911329
mp-557472,K2Be2(SiO3)3,5.035,-7.4781393234375,-3.068816304031251
mp-698025,Na2Si3(HO4)2,4.7600999999999996,-7.001186975166666,-2.645625870850574
mp-728972,K2Si3PbO10,0.8807,-6.8902457528125005,-2.40706133684375
mp-729333,K2ZrSi3O10,0.7432000000000001,-7.6763403009375,-2.8909650374687503
mp-758212,Li2Co2(SiO3)3,2.6904,-7.50152366859375,-2.5707560243229173
mp-758795,Li2Fe2(SiO3)3,2.9576000000000002,-7.72956784703125,-2.631724641510416
mp-765631,LiFeSi3O8,3.1687,-7.929579339423077,-2.834303477371794
mp-767716,LiVSi3O8,2.181799999999999,-8.1127524725,-2.970254698141026
mp-849428,Li2Mn2(SiO3)3,3.0971,-7.93847751015625,-2.754135044376797
mp-1157835,MgCr2(SiO4)3,0.0,-7.816620512222221,-2.4506176730555542
mp-1258129,Mg3Mn2(SiO4)3,1.4259,-7.78481090075,-2.841464561793104
mp-1261307,MgV2(SiO4)3,1.4533,-8.004277415138889,-2.701512509305555
mp-1250185,Ca2Mn2(SiO4)3,1.0448,-7.97745402894737,-2.8202584239927413
mp-1264900,Mg2Mn2(SiO4)3,1.3374000000000001,-7.798882999473685,-2.681174748729583
mp-1250278,Mg2V2(SiO4)3,1.753499999999999,-8.011091432236842,-2.901605204868421
mp-1261423,Mg2Cr2(SiO4)3,0.7938000000000001,-7.915091384078947,-2.745695535657895
mp-1249492,Mg2Fe2(SiO4)3,0.0,-7.53113647,-2.486269701578947
mp-1250522,CaCr2(SiO4)3,0.0,-7.917529160277777,-2.530685773055555
mp-1251946,Ca2Fe2(SiO4)3,0.0,-7.759582615394737,-2.675228492763158
mp-1264019,Mn2Zn3(SiO4)3,1.255,-7.263319074,-2.375581695793104
mp-1249697,Mn2Fe3(SiO4)3,1.1566,-8.344682194999999,-2.375403176793102
mp-1250467,Ca2Cr2(SiO4)3,0.5882000000000001,-8.104191955921053,-2.895308753289473
mp-1265277,Ca3Mn2(SiO4)3,1.106799999999999,-8.067893683125002,-3.068277864418105
mp-1223770,KAl3(SiO4)3,0.6673,-7.677063454385966,-3.044453803714913
mp-757686,Li2Si3Ni2O9,3.2407999999999992,-7.304661136770833,-2.5430534975
mp-1265127,Li2Si3Ni2O9,3.7565,-7.3152448337500005,-2.553637194479167
mp-1261131,Li2Fe2(SiO3)3,2.8911,-7.7494520703125005,-2.651608864791667
mp-771775,Li2V2(SiO3)3,1.5835,-7.957880937291667,-2.783302124270834
mp-1267368,Li2V2(SiO3)3,1.7510000000000001,-7.9657102841666685,-2.791131471145834
mp-772645,Li2Mn2(SiO3)3,2.617,-7.962103705416667,-2.777761239637213
mp-861716,Li2Fe2(SiO3)3,2.5827,-7.7412736904166675,-2.643430484895834
mp-1217882,VSi3Bi61O100,2.001,-6.332571823212122,-1.741977559151517
mp-556797,K2Si3SnO9,4.0129,-7.354538397000001,-2.8825441013
mp-556719,K2Ti(SiO3)3,3.3817999999999993,-7.873105517,-3.142049877188889
mp-1019745,K2Ca3Si3O10,4.7684999999999995,-7.307987786388889,-3.194926496083334
mp-1197461,NaBeSi3O8,0.1652,-7.522450773846153,-2.834698791259946
mp-1202648,NaBeSi3O8,0.19079999999999903,-7.610470416730768,-2.9227184341445622
mp-1221284,Na2ZrSi3O11,0.0,-7.364514564705883,-2.544828251044624
mp-1221301,Na2ZrSi3O11,0.48960000000000004,-7.347728061764705,-2.528041748103447
mp-1263751,LiFeSi3O8,3.1168,-7.936053449423076,-2.840777587371794
mp-2714429,Na2Ta2(SiO4)3,3.9263999999999992,-8.525767492017545,-3.15372629240835
mp-2714432,Na2Nb2(SiO4)3,3.0014,-8.205268562017544,-3.019082362689051
mp-556413,Na4Cd2Si3O10,2.750499999999999,-6.375613703421053,-2.531273301606171
mp-556679,Na2Ca3Si3O10,4.375500000000001,-7.354119337499999,-3.2176857076532572
mp-6078,Na2Cd3Si3O10,2.453299999999999,-6.445240197777778,-2.483071516264368
mp-727944,NaBeSi3O8,2.599599999999999,-6.901889726923077,-2.21413774433687
mp-757438,Li4Fe2Si3O10,3.3015,-7.408660236578947,-2.654381393070175
mp-757514,Li4Cu2Si3O10,0.368399999999999,-6.760078761315789,-2.465885658859649
mp-757421,Li2Cr3Si3O10,2.3316,-8.142131250555556,-2.668100568148148
mp-757670,Li4Mn2Si3O10,3.159,-7.594140643157894,-2.767020317326074
mp-757082,LiSi3BiO8,3.5803000000000003,-7.557782554230769,-2.814813376794872
mp-757294,Li2Fe3Si3O10,3.1425,-7.8290238102777785,-2.552164171203704
mp-757921,Li4Co2Si3O10,2.8895,-7.206436206842104,-2.592852572807016
mp-758763,LiFeSi3O8,3.2044,-7.9211777173076925,-2.825901855256409
mp-758615,Li4Cr2Si3O10,2.5003,-7.606684279210526,-2.727876355701755
mp-765979,Li4Si3(NiO5)2,3.5721,-7.035402062894738,-2.564268959385965
mp-766379,Li4V2Si3O10,1.3892,-7.551870435789475,-2.732972133333334
mp-767778,Li2V3Si3O10,2.0434,-8.123138131111112,-2.7439643487037033
mp-767709,Li2Mn3Si3O10,2.2462,-8.1256521575,-2.73346017141443
mp-861061,Li2Si3Ni3O10,3.7241,-7.26435648,-2.43581092925926
mp-559773,Na4Sr(SiO3)3,4.2471,-6.864836970000001,-2.872665538265721
mp-1223586,KAl(SiO3)3,0.0,-7.526814897142858,-2.835061419446429
mp-1198599,BaTi(SiO3)3,3.0835,-8.428925570238095,-3.3844919922619052
mp-1202866,Na4Ti4Si3O22,1.8712,-6.992128317575758,-2.080614760571229
mp-1221449,Na2Ca2(SiO3)3,4.2104,-7.33893530125,-3.120045022984914
mp-1221304,Na3Al3Si3O16,0.0,-6.8594551591999995,-2.431246359365516
mp-1221494,Na3Ga3Si3O16,0.0,-6.1265929462,-1.784481723265516
mp-555472,Na4Zr2(SiO4)3,4.3892,-7.7887652845238105,-3.116680973834154
mp-2716361,Na4Si3(GeO6)2,3.3375999999999992,-6.875647845873016,-2.5773418947071702
mp-2716478,Na4Hf2(SiO4)3,4.179699999999999,-7.9903565725396835,-3.184035271373837
mp-2716309,Na4Ti2(SiO4)3,2.8399,-7.625834378809524,-3.015865174151616
mp-554853,Na4Si3(SnO6)2,3.174299999999999,-6.851095075714286,-2.611213505500822
mp-6150,Na4Zr2(SiO4)3,4.321199999999999,-7.789097495,-3.117013184310344
mp-770256,Li4V2(SiO4)3,1.624699999999999,-7.578824220714286,-2.7476342323015883
mp-1218195,SrNd4Si3O13,4.680400000000001,-8.497409066428572,-3.670529781904762
mp-1220265,Nd4CdSi3O13,3.4103,-8.245627201428572,-3.453624959761905
mp-1218249,SrLa4Si3O13,4.419399999999999,-8.58459091809524,-3.7257383626190492
mp-1227220,CaLa4Si3O13,4.4836,-8.599833934761905,-3.726068436904762
mp-1229253,CaCe4Si3O13,0.16080000000000003,-8.679423971428573,-3.615002708809524
mp-732235,Ca2Y3Si3O13,0.0,-8.497694713571429,-3.538746074761905
mp-1214269,Ca2Si3Pb3O11,3.2434,-7.346090619122807,-2.827529244649123
mp-2716422,Na2Ca4Nb4Si3(S3O16)3,0.7167999999999991,-7.374590650619048,-2.4869566552656
mp-2716440,Na2Sc4Ti4Si3(S3O16)3,1.2288000000000001,-7.6598050870000005,-2.6509678801227423
mp-2716459,Na2Y6Ta2Si3(S3O16)3,1.7872,-7.8140550259047625,-2.7212669676179813
mp-2716485,Na5ZrGa3Si3(SO8)3,3.049699999999999,-6.848635161880342,-2.44395081564692
mp-2716464,Na2Ta2Ga6Si3(S3O16)3,2.0152,-7.033785563142858,-2.239368545784647
mp-2716476,Na2Nb2Ga6Si3(S3O16)3,1.3615,-6.952621058238096,-2.208650398098934
mp-2716484,Na2Y4Si3Ge4(S3O16)3,0.4364,-7.159254476285715,-2.32732251321798
mp-2716475,Na2Ca2Ti6Si3(S3O16)3,1.3918,-7.5050645489047625,-2.575194379551313
mp-2716447,Na5Y3Si3Sn(SO8)3,1.9404000000000001,-7.244103306923078,-2.688012354087092
mp-2716451,Na2Ta4Zn4Si3(S3O16)3,1.444699999999999,-7.250448698238095,-2.304542346732267
mp-2716463,Na2Ti4Ga4Si3(S3O16)3,1.283599999999999,-7.176834057000001,-2.356818169122743
mp-2716452,Na2Sc6Ta2Si3(S3O16)3,1.9804,-7.7696646458095255,-2.692015649951315
mp-2716366,Na2Y4Si3Sn4(S3O16)3,0.46870000000000006,-7.175562319333334,-2.378684984837028
mp-2716398,Na2La6Nb2Si3(S3O16)3,1.145199999999999,-7.597598024285715,-2.690092128503696
mp-2716380,Na2La4Hf4Si3(S3O16)3,3.1907,-7.808833361857143,-2.7619827256465532
mp-2716389,Na2Mg2Si3Ge6(S3O16)3,0.96,-6.725854315380952,-2.087199070313219
mp-2716442,Na2Mg2Zr6Si3(S3O16)3,2.320699999999999,-7.625763607047619,-2.650707838408458
mp-2716455,Na5La3Si3Ge(SO8)3,1.9675,-7.113042409230769,-2.66222830729222
mp-2716437,Na2Hf4Al4Si3(S3O16)3,3.2251,-7.60606968152381,-2.627243689598933
mp-2716469,Na2La4Ti4Si3(S3O16)3,1.4152999999999991,-7.569592054190476,-2.640552675884647
mp-2716488,Na2Nb2In6Si3(S3O16)3,1.0276,-6.907148477904762,-2.186228298837028
mp-2716486,Na2Ca2Zr6Si3(S3O16)3,2.3306,-7.6751052946190494,-2.689331529837029
mp-2716496,Na2Mg4Ta4Si3(S3O16)3,1.0847,-7.460624789761906,-2.493534072256076
mp-2716538,Na2Zn2Si3Ge6(S3O16)3,0.751899999999999,-6.617375567571429,-1.989312505503695
mp-2716565,Na5Al3Si3Sn(SO8)3,2.6298,-6.878230005470086,-2.534717181095639
mp-2716501,Na2Zr4In4Si3(S3O16)3,2.0447,-7.247083209095239,-2.405165244979886
mp-2716555,Na2Hf4Ga4Si3(S3O16)3,2.2875,-7.390955678,-2.45312853221798
mp-2716574,Na3ScSi3Ge3(SO8)3,1.939099999999999,-7.006877525045045,-2.367179905629855
mp-2716562,Na2Sc4Si3Sn4(S3O16)3,1.2476,-7.159569721142859,-2.372785094932267
mp-2716514,Na2La6Ta2Si3(S3O16)3,1.986899999999999,-7.6777244187619065,-2.719772165760839
mp-2716545,Na2Mg2Si3Sn6(S3O16)3,0.5402,-6.717324535809524,-2.131251233598933
mp-2716558,Na2Ti6Zn2Si3(S3O16)3,1.4079000000000002,-7.365695156857144,-2.457135166646553
mp-2716559,Na5TiAl3Si3(SO8)3,1.7417,-7.09782934923077,-2.654677546352049
mp-2716503,Na2Ca2Si3Ge6(S3O16)3,0.670199999999999,-6.749301102380953,-2.099927861170362
mp-2716524,Na3GaSi3Sn3(SO8)3,2.142,-6.773085897027027,-2.2724353338956202
mp-2716541,Na5Sc3Si3Sn(SO8)3,2.5133,-7.222810182393163,-2.6803055676341003
mp-720222,Na3CaAl3Si3SO16,3.997,-7.339651249999999,-3.011903863208811
mp-1201269,CaCeAl2FeSi3O13,0.408699999999999,-8.223868935,-3.247527517142857
mp-1214122,CaCeAlFe2Si3O13,0.30820000000000003,-8.233560950000001,-3.032245942619048
mp-745107,Ca2MnAl2Si3HO13,1.192,-7.875759554772727,-3.1185331772355
mp-696825,Ca2Al2FeSi3HO13,2.569499999999999,-7.80521673659091,-3.079444635511364
mp-1212364,KNaTiSi3(HO5)2,3.3986,-7.413190636111111,-2.8068306619145913
mp-554918,BaY6Si3B6(O12F)2,5.2315,-8.742066982142855,-3.506243231547618
mp-2714490,Na12Nb2Zn4Si3(PO6)6,2.2008,-6.850138865476191,-2.59239878157792
mp-2713284,Na6Ca4Nb2Si3(SO6)6,2.0164,-7.05608333622807,-2.57348610909256
mp-2713655,Na6Nb2Zn4Si3(SO6)6,1.9403000000000001,-6.688025295614035,-2.257768859355717
mp-2713682,Na6Mg4Nb2Si3(SO6)6,2.0242,-6.948243490350878,-2.491971166022384
mp-2714341,Na12Ca4Ta2Si3(PO6)6,3.158899999999999,-7.241949139285715,-2.880801593715485
mp-2714588,Na12Mg4Ta2Si3(PO6)6,3.1773,-7.173770417857144,-2.836440641493262
mp-2714441,Na12Mg4Nb2Si3(PO6)6,2.3352999999999993,-7.078565895873016,-2.7972876275303
mp-2715554,Na3MgNb5Si3(PO6)6,2.4848,-8.180091719722222,-2.9382852572591682
mp-2715588,Na3Ta5ZnSi3(PO6)6,3.274,-8.39266926425926,-2.994244540530774
mp-2715590,Na3CaNb5Si3(PO6)6,2.4049,-8.200576996666667,-2.951823684851762
mp-2715789,Na3MgTa5Si3(PO6)6,3.3348,-8.462900576851853,-3.057610549327071
mp-2715627,Na3CaTa5Si3(PO6)6,3.2123,-8.480094529351852,-3.067857652475218
mp-2713671,Na6Ca4Ta2Si3(SO6)6,2.8079,-7.157553586578948,-2.613004692683203
mp-2714542,Na12Ca4Nb2Si3(PO6)6,2.3096,-7.1541944540476194,-2.849098416498553
mp-2713242,Na6Mg4Ta2Si3(SO6)6,2.8274,-7.051102387719299,-2.532878396630572
mp-2713639,Na6Ta2Zn4Si3(SO6)6,2.7537000000000003,-6.791356804736843,-2.299148701718291
mp-2714611,Na12Ta2Zn4Si3(PO6)6,2.931399999999999,-6.94513638484127,-2.631344792921833
mp-2715615,Na3Nb5ZnSi3(PO6)6,2.3769,-8.10974435675926,-2.874803198092502
mp-1173736,Na3CaAl3Si3SO16,4.0333,-7.345465795185185,-3.017718408393997
mp-1253229,Na3CaAl3Si3CO15,1.8002,-7.257021246730769,-2.757347232755305
mp-705635,Na3CaAl3Si3CO15,1.1483,-7.231416406346154,-2.731742392370689
mp-560036,Li2Ca3Be3Si3(O6F)2,5.8431000000000015,-7.366115111,-3.344832116266667
mp-1197081,NaMn2Si3BH2O11,0.0,-7.802395561749999,-2.6104455039454013
mp-43094,Ca3Ti2AlSi3O14F,3.0113,-8.206646290625,-3.497703789027777
mp-43114,Ca3TiAl2Si3O13F2,3.1603,-7.93066816875,-3.521060034513889
mp-534870,Na4Ga3Si3B(HO3)4,4.2524,-6.319142227962963,-2.231634270266071
mp-694981,Na4Al3Si3B(HO3)4,4.9487000000000005,-6.737868249259258,-2.5706403129512543
mp-1211222,Na2Al3Si3HNO12,0.186,-6.796809196704545,-2.192031952114028
mp-773906,KNaZrSi3H4O11,4.997400000000001,-7.190719604523782,-2.652387126839463
mp-1173717,Na4Al3Si3CNO13,4.369400000000001,-7.4347433854,-2.843943345520689
mp-684841,KMg3AlSi3(O5F)2,4.0334,-7.076022645,-3.108441420612501
mp-534782,Ca18Nd2Si3P9(O16F)3,4.345000000000001,-7.7086343389156635,-3.444827183635972
mp-43030,Na2Li2Al3Si3ClO12,4.6301,-7.238227589130434,-3.097443346061968
mp-1223599,KMg3AlSi3O11F,0.0018000000000000002,-7.255705058000001,-3.1364184021125
mp-1221240,Na4Al2GaSi3BrO12,4.3744,-6.976648710652173,-2.925580733174662