Material_ID,Formula,Band_Gap,Energy_per_Atom,Formation_Energy_per_Atom
mp-727932,BeAlSiO5,0.424799999999999,-7.65693611,-2.95067214125
mp-728246,USiPbO7,1.810799999999999,-7.9477137647500005,-2.441203550249999
mp-728573,SrSi(OF3)2,0.6999000000000001,-5.433006222,-2.5833279840000003
mp-732197,CaSiBO5,0.40430000000000005,-7.8353614809375,-2.979097142708333
mp-732203,SiHg2(OF3)2,1.0114,-4.4920341950000005,-1.9989707072727292
mp-752660,LiCoSiO4,1.382299999999999,-7.218735134285715,-2.324520614761905
mp-753754,LiVSiO4,2.5454,-7.945795123571429,-2.7729392683333343
mp-757117,LiFeSiO4,2.8965,-7.564374673571428,-2.479216655476189
mp-757219,LiSiBiO4,3.4076,-6.883609748928571,-2.4527355736904752
mp-757426,Li2FeSiO4,2.7859,-7.17887216625,-2.490743542083333
mp-757461,Li2CrSiO5,0.25420000000000004,-7.386817376805556,-2.53837112587963
mp-757664,Li2CoSiO4,2.7175000000000002,-6.988669593437501,-2.467616530520834
mp-757733,Li2CrSiO4,1.311099999999999,-7.3928892903125,-2.556882383645833
mp-757985,Li2CoSiO4,2.8566000000000003,-7.012009267500001,-2.490956204583334
mp-758199,LiCoSiO4,0.9649999999999991,-7.133888200714287,-2.239673681190477
mp-758325,Li2CuSiO4,0.0,-6.4626702896875,-2.320893483020834
mp-758436,LiFeSiO4,3.0214,-7.573881003214286,-2.488722985119047
mp-758519,LiFeSiO4,2.3779,-7.529892903214285,-2.444734885119047
mp-758544,Li2CrSiO4,2.070499999999999,-7.4221539334375,-2.586147026770834
mp-758473,Li2CoSiO4,2.8188999999999993,-7.01081128625,-2.489758223333333
mp-758465,Li2FeSiO4,3.2416,-7.228670343125,-2.540541718958333
mp-758793,Li2CuSiO4,0.14150000000000001,-6.475703019375,-2.333926212708333
mp-758745,LiCrSiO4,2.5989999999999993,-7.946423063571428,-2.692261294047618
mp-758940,LiFeSiO4,2.1901,-7.554436744642857,-2.469278726547618
mp-758862,LiFeSiO4,3.0364,-7.572905749404762,-2.487747731309524
mp-759145,LiCoSiO4,1.4868000000000001,-7.196904495238094,-2.302689975714285
mp-759114,LiCoSiO4,1.4128,-7.202430343333333,-2.308215823809524
mp-759321,Li2FeSiO5,0.2561,-7.014276074722222,-2.297277186018518
mp-764348,LiFeSiO4,2.9644999999999992,-7.603172973571428,-2.518014955476189
mp-766040,Li4V2SiO8,1.871699999999999,-7.307998803833333,-2.5871648253888893
mp-765955,Li2CuSiO4,0.037899999999999004,-6.432577050624999,-2.290800243958333
mp-766099,LiVSiO4,2.027,-7.948113576071429,-2.7752577208333333
mp-766038,Li2VSiO5,1.7255,-7.499210566666666,-2.714002249074073
mp-766176,LiSiBiO4,3.5212,-6.949142538214285,-2.51826836297619
mp-766582,Li2SiNiO4,2.9964999999999993,-6.7785503503125,-2.426657292395833
mp-766812,Li2SiNiO4,3.548599999999999,-6.792167328750001,-2.440274270833334
mp-783909,Li2MnSiO4,3.1369,-7.4558171746875,-2.6811892902622123
mp-782667,Li2MnSiO4,2.919199999999999,-7.4198764984375,-2.6452486140122122
mp-780872,LiMnSiO4,1.0289,-7.76063741875,-2.5766231032163383
mp-850798,Li2MnSiO4,2.9222,-7.435484166249999,-2.660856281824712
mp-863408,LiSiBiO4,3.035499999999999,-6.907767317261904,-2.47689314202381
mp-867937,Ca2SiB5O14,0.0296,-7.679808878295454,-2.584130209469696
mp-1200173,CrSi(Ag3O4)2,0.0012000000000000001,-5.6897841153125,-1.207304139687499
mp-555015,SiAg6SO8,0.0,-5.423728369375,-1.285916387656248
mp-559745,SiAg8(SO2)2,0.0,-4.290863210333333,-0.541704369555554
mp-558986,CaMn6SiO12,0.5927,-8.47421290700003,-2.38528582087934
mp-560004,Na2USiO6,1.927899999999999,-7.973310381625,-3.06451681890086
mp-1223148,La3Ga5SiO14,3.6931000000000003,-7.531051041304348,-2.981256540108696
mp-1220307,Nd3Ga5SiO14,3.5227,-7.466729025652174,-2.938829264347825
mp-1223549,KAlSiO4,2.6927000000000003,-7.12887679,-2.829718561035714
mp-1220077,NdSiBO5,5.213100000000001,-8.602840110833334,-3.401257328541667
mp-1222841,LaSiBO5,4.297999999999999,-8.662839030833334,-3.440273789479167
mp-22225,CeSiBO5,0.157499999999999,-8.71473921,-3.367056123020832
mp-757167,Li2SiNiO4,3.0796,-6.742257674583333,-2.390364616666666
mp-18147,LiGaSiO4,4.2293,-7.093713408333333,-2.785973274166667
mp-18220,LiAlSiO4,5.2489,-7.620719215238095,-3.210481965714286
mp-758562,LiFeSiO4,2.9822,-7.621925305714285,-2.536767287619047
mp-764945,LiCoSiO4,1.299,-7.244100012380952,-2.349885492857142
mp-766082,LiVSiO4,2.5058,-7.961290156904761,-2.788434301666665
mp-766196,LiSiBiO4,3.3918,-6.910121911904762,-2.479247736666668
mp-1182737,Cs2Si(S2O7)3,5.269699999999999,-6.5154922295,-1.9828718401436791
mp-1020711,Rb2Si(S2O7)3,5.2544,-6.518805423999999,-1.9813479344999991
mp-1211039,MnSi(OF)6,0.0,-5.14193990952381,-1.159210366518884
mp-1198966,SiAg2(S2O7)3,3.529599999999999,-6.354427204999999,-1.69280947511111
mp-23731,CuSi(HO2)2,0.22189999999999901,-6.395711790625,-1.8823740909375002
mp-758423,LiCoSiO4,1.303,-7.210395076428571,-2.316180556904762
mp-756818,LiSiBiO4,3.2639,-6.90857390904762,-2.477699733809525
mp-762632,LiFeSiO4,3.03,-7.5511331550000005,-2.4659751369047602
mp-759020,LiFeSiO4,2.4486,-7.568468150714286,-2.483310132619048
mp-766129,LiVSiO4,1.902299999999999,-7.930236415,-2.757380559761904
mp-859102,LiFeSiO4,1.7211999999999992,-7.542761769523809,-2.457603751428571
mp-863415,LiFeSiO4,2.5113000000000003,-7.57850798452381,-2.493349966428572
mp-1046669,MgCrSiO5,0.5888,-7.8809666387499995,-2.699886571249999
mp-1046733,CaFeSiO5,0.0,-7.705330100625,-2.6252370825
mp-1046661,ZnSiNiO5,0.25570000000000004,-6.429167071875,-1.7785416537499992
mp-1046674,MgCoSiO5,0.0,-7.135632033125,-2.269505809375
mp-1046626,MnZnSiO5,1.2964,-7.311858924375,-2.238498679741379
mp-1046683,MgMnSiO5,0.7943999999999991,-7.7374615150000015,-2.617760469741379
mp-1046688,MgFeSiO5,0.0,-7.441734648125,-2.408532863125
mp-1179522,SiPb(OF3)2,0.0,-5.124197209375,-2.072497073374998
mp-1210718,MgAl2SiO7,0.0009999999999990002,-7.299213882954546,-2.828062361136363
mp-1213869,CaVSiO5,1.1317,-8.2620127834375,-3.1051841578125
mp-1213910,CaYSiO5,0.0,-8.100792103125,-3.265815298749999
mp-1213985,CaAlSiO5,0.32,-7.658372898750001,-3.168835553125
mp-17775,Co2Si(P2O7)2,0.0,-7.783052137142857,-2.515171201836734
mp-17863,Mn2Si(P2O7)2,4.120100000000001,-8.151545295,-2.690464495687309
mp-541108,Cd2Si(P2O7)2,4.145,-7.239191569285714,-2.559254113027209
mp-553884,Ba5Si(Br3O2)2,4.3819,-5.733663591875,-2.944056344374999
mp-554616,SiNi2(P2O7)2,4.3415,-7.643864150238095,-2.504867028265305
mp-555087,Ba5Si(Cl3O2)2,4.6525,-6.015980320937501,-3.147026776562501
mp-6440,CaTiSiO5,2.9385,-8.484360853125,-3.476083984166667
mp-651279,Co4Si(CO)14,2.5423,-7.81059355530303,-0.767207013636363
mp-669318,Eu5Si(Cl3O2)2,0.7899,-8.527357334374999,-3.043048485312501
mp-6809,CaSiSnO5,3.2313,-7.459449135625,-2.936912286874999
mp-757428,Cd2Si(P2O7)2,4.0032,-7.199443078333333,-2.519505622074828
mp-1209083,Sr2LiSiO4,0.0,-6.69354521,-2.879677572916666
mp-1191141,SrLi2SiO4,4.6041,-6.8626926754166675,-3.02176319125
mp-14629,Li2EuSiO4,0.043300000000000005,-7.90015166125,-2.984761698958333
mp-753118,Li2FeSiO4,3.2066,-7.203141706041666,-2.515013081874999
mp-752766,Li2CrSiO4,3.0789,-7.449802161250001,-2.613795254583334
mp-6267,LaSiBO5,4.142500000000001,-8.660643243333334,-3.438078001979167
mp-780734,Li2MnSiO4,2.946599999999999,-7.4081853945833345,-2.633557510158046
mp-758715,Li2CuSiO4,0.6586000000000001,-6.472719130416666,-2.330942323749999
mp-762264,Li2CoSiO4,2.6004,-6.952127102916666,-2.43107404
mp-1198202,Mg8SiW9O49,0.07499999999999901,-7.348541268059701,-1.7135809775373132
mp-9480,KAlSiO4,4.5009999999999994,-7.483395192857142,-3.184236963892856
mp-752718,LiFeSiO4,2.3327,-7.534357678095239,-2.449199660000001
mp-863062,LiSiBiO4,3.4057,-6.9161238292857155,-2.485249654047619
mp-1225970,CsNaSiO3,3.7895000000000003,-6.387221287777778,-2.634071388783526
mp-1228164,AlSiAgO4,2.5438,-7.229074314999999,-2.6854063780952373
mp-1220868,NaAlSiO4,3.8137,-7.4503521880952395,-3.121143808292283
mp-1228209,AlTlSiO4,4.080999999999999,-7.377103062380953,-2.900787348571429
mp-767248,LiFeSiO4,0.9403,-7.573694513333333,-2.488536495238095
mp-541929,FeSiP3O11,2.8712,-7.920670894375,-2.635087714933036
mp-562501,SiP3RuO11,0.008,-7.8094037971875,-2.473546784620535
mp-581326,SiMoP3O11,4.3633,-8.12006978921875,-2.686009803526785
mp-667374,NaAlSiO4,4.5428000000000015,-7.469187339523809,-3.139978959720853
mp-849804,LiFeSiO4,2.9513,-7.56054918202381,-2.475391163928572
mp-765026,LiCoSiO4,1.4635,-7.1809702092261904,-2.286755689702381
mp-1198056,NaAlSiO4,4.2808,-7.462027953214286,-3.13281957341133
mp-1260096,LiFeSiO4,3.0224,-7.571406835238095,-2.486248817142857
mp-555764,BaNb10SiO19,0.0,-9.40004384564516,-2.872024411290322
mp-554947,NaSiBO4,5.4139,-7.652360975476191,-2.904036032697045
mp-555031,Fe3SiP5O19,1.7066,-7.918411042053571,-2.4925535998469392
mp-556740,NaSiBO4,5.5035,-7.65901578515873,-2.910690842379585
mp-560988,V3SiP5O19,2.0564,-8.221895907767857,-2.730265087704081
mp-560186,BaMgSiO4,4.1136,-7.409735448095239,-3.300220161666667
mp-560632,NaGaSiO4,3.8225,-6.937196696666668,-2.710485432220855
mp-562027,BaCoSiO4,3.1021,-7.683047813333333,-2.787397283333333
mp-561305,BaZnSiO4,3.5863,-6.998581681190477,-2.942027309761905
mp-649722,NaAlSiO4,2.7958,-6.651756368392857,-2.322547988589901
mp-680374,KAlSiO4,4.7001,-7.4852171425,-3.186058913535714
mp-757883,LiSiBiO4,2.950999999999999,-6.91707832,-2.486204144761905
mp-758257,LiFeSiO4,3.0074,-7.567461787142856,-2.482303769047619
mp-758695,LiFeSiO4,3.0082,-7.560697575714285,-2.475539557619047
mp-753739,LiVSiO4,2.5026,-7.93500828,-2.7621524247619043
mp-759400,LiCoSiO4,1.4872,-7.189146914999999,-2.294932395476189
mp-758603,LiFeSiO4,3.0569,-7.56884560595238,-2.4836875878571423
mp-757777,LiSiBi3O7,2.976099999999999,-6.597550629583334,-2.127544724444445
mp-763740,LiFeSiO4,2.9626,-7.586228182857142,-2.501070164761903
mp-8355,KAlSiO4,4.5021,-7.4830512321428575,-3.183893003178571
mp-766374,LiSiBiO4,3.336299999999999,-6.913114041190475,-2.482239865952381
mp-559569,YSiNO2,4.216200000000001,-8.984006339333334,-2.950284482333335
mp-1020615,Y2SiP4O15,5.7959,-8.37537157,-3.17878928788961
mp-558713,LiAlSiO4,4.6935,-7.601210875714285,-3.190973626190476
mp-1222444,LiAlSiO4,4.796200000000001,-7.613046669047619,-3.20280941952381
mp-14399,LiAlSiO4,4.8486,-7.614032108452381,-3.203794858928572
mp-752623,LiCoSiO4,1.1803,-7.202874152619048,-2.308659633095238
mp-6327,LiAlSiO4,4.798599999999999,-7.613018353809524,-3.202781104285715
mp-762644,LiFeSiO4,3.0818,-7.5953243169047635,-2.510166298809525
mp-6326,LiAlSiO4,4.8476,-7.614519227500001,-3.204281977976191
mp-759281,LiFeSiO4,2.9108,-7.58135688952381,-2.496198871428571
mp-753125,LiCoSiO4,1.332,-7.213004252380952,-2.318789732857143
mp-759364,LiCoSiO4,1.2296,-7.021214853809523,-2.127000334285713
mp-753492,LiVSiO4,2.345099999999999,-7.930165653095238,-2.7573097978571433
mp-758825,LiFeSiO4,2.9838,-7.592199626666666,-2.507041608571428
mp-762623,LiFeSiO4,2.851099999999999,-7.570872962619048,-2.48571494452381
mp-775185,LiVSiO4,2.4729,-7.928072827738095,-2.755216972499999
mp-558310,BaLi2SiO4,4.3955,-6.852049508958333,-2.982801668541666
mp-561050,BaCaSiO4,4.367100000000001,-7.512063254642856,-3.3489579875
mp-1020159,Na2Si(S2O7)3,5.5087,-6.514171312749999,-1.9526347095086192
mp-1194369,NaZnSiO4,0.362199999999999,-6.25536632142857,-2.281276830197043
mp-1227191,Cd5Si(PO6)2,2.0401,-6.241853916125001,-2.220261511589285
mp-1227400,Ca5Si(PO6)2,4.7968,-7.669843754375,-3.386853927339285
mp-1252396,Ca2Al2SiO7,3.6755999999999993,-7.587032037499999,-3.290082330416666
mp-1662331,LiMnSiO4,1.2118,-7.822697327857142,-2.6386830123234812
mp-557778,RbNbSiO5,3.2531,-8.190788713229166,-3.034918442291667
mp-677549,Ca2Al2SiO7,3.2089,-7.4517824725,-3.154832765416666
mp-753511,LiTiSiO4,0.0,-8.061443328571428,-3.058360909523809
mp-758607,LiCoSiO4,0.7289000000000001,-7.186413930714286,-2.292199411190477
mp-758977,LiFeSiO4,1.9498000000000002,-7.545907227142856,-2.460749209047617
mp-541995,LaSiO3F,4.541399999999999,-8.300350632222221,-3.780507211388888
mp-18559,LaSiNO2,0.0,-7.619331918666666,-1.9002269406666672
mp-651175,CeSiNO2,0.0,-8.563390120666668,-2.644096589666668
mp-1194454,SiN4(OF2)3,0.0,-4.849326150714286,-0.198938559642857
mp-555342,Na2CaSiO4,3.3314999999999992,-6.5327074884375005,-2.794432052532327
mp-757447,LiFeSiO4,3.177499999999999,-7.5893894117857155,-2.504231393690475
mp-766024,LiVSiO4,2.787,-7.930129091785714,-2.757273236547618
mp-757260,Li6MnSiO6,3.085099999999999,-6.329120295178572,-2.348503398602218
mp-8351,NaAlSiO4,4.4835,-7.4648366007142855,-3.135628220911329
mp-1046737,MgSiNiO5,0.0,-6.837791323125,-2.140825104374999
mp-1046656,ZnCoSiO5,0.0,-6.770107970625,-1.9503225475000001
mp-1046716,VZnSiO5,1.8206000000000002,-7.6273544540625,-2.563757862187501
mp-1103920,SiHg2(O2F3)2,0.18129999999999902,-4.592997862307692,-1.722257833461539
mp-1179495,SiHg2(O2F3)2,0.0,-4.57687474,-1.706134711153847
mp-1189864,Li2LuSiO5,0.11140000000000001,-7.259462520555555,-2.9811673825925933
mp-1202503,SiP4N2O13,2.1446,-7.327611932500001,-1.923248898178573
mp-1210628,MgAl2SiO7,0.028200000000000003,-7.299863347727273,-2.828711825909089
mp-1211498,KLi3SiO4,4.875699999999999,-6.176994712222221,-2.613072448583333
mp-1228645,BaSi(HO2)2,4.3515999999999995,-6.7947678881249995,-2.553959154687499
mp-1236963,BaSi(HO2)2,4.3506,-6.80827621,-2.567467476562499
mp-1259944,Cs2Si(HO2)2,3.7654,-5.909707867222222,-2.151546748534482
mp-1255391,ZnFeSiO5,0.0,-7.079257275000001,-2.092396290625001
mp-1267366,MgCoSiO5,0.021399999999999003,-7.16926601875,-2.303139795
mp-1252337,MnZnSiO5,0.6890000000000001,-7.3543136475000015,-2.280953402866379
mp-1265992,ZnCrSiO5,0.5385999999999991,-7.5131222568750005,-2.37838299
mp-1308866,MgMnSiO5,1.0222,-7.737860256875,-2.618159211616379
mp-504849,Cs2Li2SiO4,3.8531,-5.89677992111111,-2.468895151775222
mp-556661,Y2SiCO7,4.7935,-8.948532657272727,-3.284178697499999
mp-557355,Rb2SiP4O13,5.3551,-7.4050729765,-2.736484309428571
mp-559088,La2Si(IO2)2,3.0635,-7.413011088055555,-3.175544255833333
mp-644103,CaSiSnO5,3.2022,-7.459249535625,-2.936712686874999
mp-707840,Na2Si(H5O4)2,4.6022,-5.570462099285714,-1.6826472414408862
mp-724946,Li2LuSiO5,0.0,-5.391289362222222,-1.112994224259259
mp-726359,CaSiSnO5,1.5452,-6.273818185,-1.75128133625
mp-733484,SiP4N2O13,0.0,-7.041128067000001,-1.636765032678572
mp-752472,Li3FeSiO5,2.2479,-6.84907877,-2.4128874835
mp-753109,Li4Fe2SiO7,1.854499999999999,-6.891306746428571,-2.274393964166666
mp-754230,Li3SiNiO5,0.7117999999999991,-6.4273999045,-2.260197070999999
mp-756210,Li3SiNiO5,0.18480000000000002,-6.41370995625,-2.246507122749999
mp-756653,LiVSiO4,1.9303000000000001,-7.934506322857143,-2.761650467619048
mp-759121,LiFeSiO4,2.284799999999999,-7.554947752142857,-2.469789734047618
mp-762413,Li3CrSiO5,3.0177,-7.1506249275,-2.596131015
mp-765411,Li3CrSiO5,3.3198,-7.16955023875,-2.61505632625
mp-766051,LiVSiO4,2.149299999999999,-7.924168596428571,-2.751312741190475
mp-772106,Li3FeSiO5,2.298199999999999,-6.860763502499999,-2.424572216
mp-780196,LiMnSiO4,0.44860000000000005,-7.749032498571428,-2.565018183037767
mp-780147,LiMnSiO4,1.0511,-7.751110231785715,-2.567095916252053
mp-8449,Rb2Li2SiO4,3.8516,-5.941929439444444,-2.497921002962963
mp-861563,Li3VSiO5,1.6445999999999992,-7.1276422335,-2.630062461000001
mp-995230,Cs2Si(HO2)2,3.883199999999999,-5.888767983333333,-2.130606864645593
mp-1104706,NaCaSiO4,0.0,-6.894269020714285,-2.813628633768472
mp-1177859,Li2SiNiO4,3.3961,-6.78089352,-2.429000462083333
mp-554159,Li2BeSiO4,5.5993,-7.06092335125,-2.964120770208333
mp-558568,Rb2CdSiO4,2.4877000000000002,-5.8296708784375,-2.312390830312499
mp-752900,Li2FeSiO4,3.160199999999999,-7.2405116575,-2.5523830333333333
mp-755842,Li2MnSiO4,3.2568,-7.450903963437501,-2.6762760790122133
mp-758372,Li2CoSiO4,2.8528000000000002,-7.022528624375,-2.5014755614583333
mp-752888,Li2CuSiO4,0.0,-6.455799970625,-2.314023163958333
mp-753362,LiFeSiO4,2.9294000000000002,-7.600045966071428,-2.514887947976189
mp-763240,LiCoSiO4,1.3073000000000001,-7.223903857857143,-2.329689338333334
mp-1222720,Li2Al2SiO6,4.6259000000000015,-7.361994531818182,-3.141805308787879
mp-765575,Li7Fe7SiO16,1.475899999999999,-7.091984525483871,-2.019555407849461
mp-753647,Li2Fe2SiO6,2.5634,-7.367634698181818,-2.288455406060606
mp-1210055,NaAlSiO5,0.0,-6.78436674625,-2.3778142882974143
mp-1521551,Sr2CeSiO6,1.763,-7.827369054,-3.383880043
mp-9413,Ca2TiSiO6,2.3708,-8.099735941,-3.397758357333333
mp-1225830,Cu4Si(GeO4)3,0.0,-6.502300859,-1.74896284225
mp-1220851,NaAlSiO4,4.8045,-7.281266208214285,-2.95205782841133
mp-555976,Na2TiSiO5,3.2081,-7.520115102222222,-2.992997699010217
mp-780114,LiVSiO5,2.0932,-7.79819855625,-2.653454557291667
mp-766036,Li2VSiO5,2.271,-7.521467469166668,-2.736259151574074
mp-758787,Li2FeSiO5,0.0,-6.995603034444445,-2.27860414574074
mp-1176587,LiSiBiO4,3.0066,-6.9005950657142865,-2.4697208904761903
mp-1194817,Na2ScSiO5,0.0,-7.189107232638889,-2.835659041834292
mp-1214285,BeSi(AgO2)2,0.7882,-6.392536429374999,-2.062230145416666
mp-15171,K2MgSiO4,4.2164,-6.421057346093749,-2.782260907281249
mp-1247561,NaSiBO4,5.469099999999999,-7.605242732678571,-2.8569177898994242
mp-1248621,Li2CoSiO4,3.083,-6.985553835781251,-2.464500772864584
mp-1266684,LiSiBiO4,3.169399999999999,-6.9029620325,-2.4720878572619043
mp-505285,K2CoSiO4,2.9618,-6.65970414609375,-2.33303936915625
mp-541537,K2ZnSiO4,3.7041,-6.0584612953125,-2.466005657124999
mp-541538,K2CdSiO4,2.9406,-5.901250340468749,-2.3462613797812493
mp-560829,Na2BeSiO4,3.1739,-6.6558140340625,-2.700811975032327
mp-560334,NaAlSiO4,4.7132000000000005,-7.476531769464286,-3.14732338966133
mp-6015,LiSiNO,5.254399999999999,-7.2759139868750005,-2.120794075208334
mp-6236,Na2BeSiO4,4.77,-6.75035441921875,-2.795352360188578
mp-726397,Mn2Si(H2O3)2,2.6479,-7.132165075961538,-1.9769511991047741
mp-757383,LiSiBiO4,3.1641,-6.892113673214285,-2.461239497976191
mp-757822,LiCoSiO4,1.342,-7.218556925892857,-2.324342406369048
mp-757502,Li2CrSiO4,2.588899999999999,-7.38385333609375,-2.547846429427084
mp-758572,LiFeSiO4,2.8973,-7.5677596014285715,-2.482601583333332
mp-758490,Li2CrSiO4,2.7977,-7.39681832375,-2.560811417083333
mp-758507,LiFeSiO4,2.9878,-7.6008723428571425,-2.515714324761904
mp-758767,LiCoSiO4,1.2407,-7.219274690892858,-2.325060171369049
mp-766049,LiVSiO4,2.5971,-7.944558818571429,-2.771702963333333
mp-758421,Li2FeSiO4,2.9991000000000003,-7.196705844999999,-2.508577220833333
mp-759087,LiFeSiO4,3.0101,-7.601028634464285,-2.515870616369046
mp-766089,LiVSiO4,2.6723,-7.942956829464286,-2.770100974226191
mp-766475,Li2SiNiO4,3.4354,-6.74871797078125,-2.396824912864583
mp-772320,Li2CoSiO4,2.9534000000000002,-6.9622347525000015,-2.441181689583334
mp-766711,Li2SiNiO4,3.4273,-6.7283008562500015,-2.376407798333334
mp-849346,Li2MnSiO4,2.8527,-7.410154545312499,-2.635526660887212
mp-1222553,LiAlSiO4,4.6982,-7.590658344761905,-3.180421095238096
mp-757540,LiFeSiO4,2.7333,-7.557115506904761,-2.4719574888095233
mp-1210475,Na2CoSiO4,2.2415,-6.6953435881250005,-2.316091047219828
mp-1211190,LiFe2SiO4,0.0,-7.547209420624999,-2.038943503541666
mp-18968,Li2FeSiO4,3.123599999999999,-7.2513950578125,-2.563266433645833
mp-559240,Li2MnSiO4,2.176599999999999,-7.464712298437499,-2.690084414012211
mp-753828,Li2CoSiO4,2.7997,-7.027791338125001,-2.506738275208334
mp-753346,Li2VSiO4,2.0199,-7.3820157275,-2.6171514958333333
mp-752524,Li2CrSiO4,1.4073,-7.432858165,-2.596851258333333
mp-752858,Li2CuSiO4,0.0,-6.476641873125,-2.334865066458333
mp-756200,Li2SiNiO4,3.344699999999999,-6.8028665140625,-2.450973456145833
mp-1177860,Li2SiNiO4,3.577499999999999,-6.7953220403125005,-2.443428982395834
mp-1020023,Li3AlSiO5,4.9447,-6.938458658,-2.9747119095
mp-1020648,NaLaSiO4,4.5657,-7.818455101785714,-3.319185111268472
mp-1192933,CsAlSiO4,4.466799999999999,-7.453810184642856,-3.186565120307881
mp-1198062,LiAlSiO5,0.0015,-7.015657655,-2.538204936041666
mp-1222236,Mg3SiO5F,0.786899999999999,-6.75195208075,-3.05491353325
mp-1220991,Nd3Si(Mo2O7)2,1.342799999999999,-8.768774922386363,-2.751328793409089
mp-1222742,Li2MgSiO4,4.7565,-6.782302753437499,-2.949118028645832
mp-1229323,Ce3SiCl5O4,0.031399999999999005,-7.139107870576923,-3.118285181346153
mp-1224288,La3Si(Mo2O7)2,1.337099999999999,-8.851487323181818,-2.811151238863636
mp-13774,NaNdSiO4,0.0,-7.763008601904733,-3.287718564601777