Material_ID,Formula,Band_Gap,Energy_per_Atom,Formation_Energy_per_Atom
mp-2712795,Na6Ca3Si2Sn(SO6)4,1.6538,-6.569877618166667,-2.4640817527485632
mp-2712815,Na2ZnSi2Sn3(SO6)4,0.6362000000000001,-6.624332415648149,-2.1208035494747772
mp-2712819,Na2CaSi2Sn3(SO6)4,0.345699999999999,-6.764522921203705,-2.24027582530811
mp-2713300,Na3TiSi2SnPO12,2.8699000000000003,-7.382791034375001,-2.804197641730707
mp-2713309,Na3ZrSi2SnPO12,3.237699999999999,-7.464800620166668,-2.8535967968557063
mp-2713379,NaTaNbSi2PO12,3.0128,-8.57775543064815,-3.080444596945677
mp-2713585,Na3ZrTiSi2PO12,2.747499999999999,-7.878514184500001,-3.073014353105707
mp-2713621,Na3ZrTiSi2PO12,2.7509,-7.877104085000001,-3.071604253605707
mp-2713601,Na3ZrSi2SnPO12,3.3591,-7.465212521124999,-2.854008697814039
mp-2713590,Na3TiSi2SnPO12,2.782,-7.377989037833333,-2.799395645189039
mp-2713664,Na3ZrSi2GePO12,3.1765,-7.469095794500001,-2.827219171189041
mp-2713719,Na3ZrSi2GePO12,3.2283,-7.467391570249999,-2.8255149469390393
mp-2714322,Na4LaAlSi2SO12,3.538699999999999,-6.966414802619048,-2.756272243715107
mp-2714328,Na4ScAlSi2SO12,4.0326,-7.063170103888889,-2.7865293545087573
mp-2714384,Na4LaYSi2SO12,3.531799999999999,-7.201914852698413,-2.8601763095087582
mp-2714424,Na4AlGaSi2SO12,3.7159,-6.685011900476191,-2.565722250262726
mp-2714457,Na4YAlSi2SO12,3.808,-7.062764142222223,-2.777712802603996
mp-2714484,Na4LaInSi2SO12,2.7323,-6.762666657063493,-2.59949562609606
mp-2714460,Na4ScGaSi2SO12,3.4973,-6.8871493852380965,-2.644674340977012
mp-2714461,Na4ScInSi2SO12,3.2088,-6.8507771194444445,-2.621107898000821
mp-2714507,Na4YScSi2SO12,3.8502,-7.282005085873017,-2.873768352207171
mp-2714511,Na4AlInSi2SO12,3.2256,-6.641968285714286,-2.535484458318281
mp-2714529,Na4InGaSi2SO12,3.1024,-6.463824095317461,-2.391505973040504
mp-2714566,Na4YInSi2SO12,2.9899,-6.858074802619048,-2.619994990937329
mp-2714590,Na4LaScSi2SO12,3.5796,-7.189462116984128,-2.856134164032567
mp-2714617,Na4YGaSi2SO12,3.1839,-6.88653640968254,-2.635650775183361
mp-2715234,Na6Sc3TaSi2(PO6)4,3.549699999999999,-7.810387788625,-3.055931443354515
mp-2715231,Na3HfSi2SnPO12,3.3857,-7.576824937124999,-2.895146693814038
mp-2715244,Na6CaSi2Ge3(PO6)4,1.8263,-6.943369732916667,-2.563654672962849
mp-2715250,Na6TaIn3Si2(PO6)4,3.4192,-7.1398175985,-2.6533584053545143
mp-2715235,Na6MgZr3Si2(PO6)4,3.597399999999999,-7.687838455416667,-3.023151183962849
mp-2715239,Na6ZnSi2Ge3(PO6)4,2.3574,-6.840195303625,-2.479126650421183
mp-2715253,Na6TaGa3Si2(PO6)4,3.3143000000000002,-7.190586984916667,-2.683958620833683
mp-2715269,Na6CaSi2Sn3(PO6)4,2.3384,-6.949798275000001,-2.616092415046182
mp-2715236,Na6Sc3NbSi2(PO6)4,2.6599,-7.734658743875,-3.024342961171183
mp-2715246,Na6CaZr3Si2(PO6)4,4.111599999999999,-7.7181562150000005,-3.044090696921182
mp-2715307,Na6CaHf3Si2(PO6)4,4.2252,-7.877761275333333,-3.097984127254516
mp-2715276,Na6La3TaSi2(PO6)4,3.233399999999999,-7.6859162266666665,-3.0361945313961822
mp-2715304,Na6CaSi2Ge3(PO6)4,2.133899999999999,-6.9445804376249995,-2.564865377671181
mp-2715306,Na6MgSi2Ge3(PO6)4,2.2966,-6.93547896025,-2.565142146921183
mp-2715278,Na6TaIn3Si2(PO6)4,1.0192,-7.142187263083334,-2.655728069937849
mp-2715294,Na6La3NbSi2(PO6)4,2.4475,-7.616930022666667,-3.011348889962849
mp-2715277,Na6Zr3ZnSi2(PO6)4,3.7194000000000003,-7.598221461833334,-2.942802350504516
mp-2715280,Na6Y3TaSi2(PO6)4,3.5845000000000002,-7.831864840625,-3.064161815729515
mp-2715302,Na6Sc3NbSi2(PO6)4,2.4788,-7.733001758750001,-3.022685976046183
mp-2715296,Na6La3NbSi2(PO6)4,2.7685,-7.611674908625,-3.006093775921182
mp-2715300,Na3HfZrSi2PO12,4.4678,-8.077903729833334,-3.169319047772374
mp-2715312,Na6TaAl3Si2(PO6)4,3.1924,-7.481198907416667,-2.9207595577711833
mp-2715341,Na6TaAl3Si2(PO6)4,3.3522,-7.478795270000001,-2.9183559203545153
mp-2715319,Na3HfTiSi2PO12,2.7965,-7.986997161750001,-3.111022910355707
mp-2715323,Na6CaZr3Si2(PO6)4,3.6024000000000003,-7.7202632669166675,-3.046197748837849
mp-2715320,Na6Hf3ZnSi2(PO6)4,4.101500000000001,-7.758943872583334,-2.997813131254516
mp-2715348,Na6CaSi2Sn3(PO6)4,2.0405,-6.95418252575,-2.620476665796182
mp-2715344,Na6MgSi2Sn3(PO6)4,2.364999999999999,-6.928991399083333,-2.604663785754516
mp-2715350,Na3Si2SnGePO12,2.9657,-6.971047547875,-2.556077363314039
mp-2715325,Na6Ti3ZnSi2(PO6)4,2.129499999999999,-7.461217528833334,-2.854714063504516
mp-2715383,Na6NbIn3Si2(PO6)4,1.906699999999999,-7.066423416125,-2.624104785546181
mp-2715364,Na6La3TaSi2(PO6)4,3.6096,-7.682935706375,-3.033214011104514
mp-2715358,Na6MgTi3Si2(PO6)4,2.5145,-7.54919767275,-2.933426047296183
mp-2715379,Na6Hf3MgSi2(PO6)4,4.5678,-7.844843535875,-3.074444634421182
mp-2715385,Na3Si2SnGePO12,2.9739,-6.973550378416666,-2.558580193855706
mp-2715353,Na6MgSi2Ge3(PO6)4,2.437699999999999,-6.926469842125,-2.5561330287961823
mp-2715380,Na6Sc3TaSi2(PO6)4,3.324499999999999,-7.81040259525,-3.055946249979517
mp-2715392,Na6NbAl3Si2(PO6)4,2.4567,-7.403208644999999,-2.886909857921181
mp-2715354,Na6NbGa3Si2(PO6)4,2.551699999999999,-7.115215423666667,-2.652727622150349
mp-2715370,Na6CaTi3Si2(PO6)4,2.548599999999999,-7.577623228624999,-2.952473356546181
mp-2715375,Na3TiSi2GePO12,2.8689,-7.39160090875,-2.782334716105706
mp-2715450,Na6MgZr3Si2(PO6)4,4.0667,-7.684023299250001,-3.019336027796183
mp-2715436,Na6CaTi3Si2(PO6)4,2.1181,-7.573336425250001,-2.948186553171182
mp-2715424,Na6Zr3ZnSi2(PO6)4,4.1312,-7.594439293875,-2.939020182546182
mp-2715449,Na6Y3NbSi2(PO6)4,2.7672,-7.757543805,-3.033981342671183
mp-2715420,Na6ZnSi2Sn3(PO6)4,2.512099999999999,-6.83256073425,-2.517501281046183
mp-2715397,Na6MgTi3Si2(PO6)4,2.1506,-7.552241842583333,-2.936470217129516
mp-2715400,Na6ZnSi2Sn3(PO6)4,2.417499999999999,-6.837956575750001,-2.522897122546183
mp-2715419,Na6MgSi2Sn3(PO6)4,2.5967000000000002,-6.922798929625,-2.598471316296182
mp-2715426,Na6Ti3ZnSi2(PO6)4,2.494399999999999,-7.457199518999999,-2.850696053671181
mp-2715442,Na6TaGa3Si2(PO6)4,3.4168000000000003,-7.18827738375,-2.681649019667015
mp-2715421,Na6Y3TaSi2(PO6)4,3.4046,-7.833487440583334,-3.065784415687849
mp-2715407,Na6Hf3MgSi2(PO6)4,4.2568,-7.8486724190000015,-3.078273517546183
mp-2715451,Na6Y3NbSi2(PO6)4,2.5572,-7.75971900825,-3.036156545921182
mp-2715519,Na3TiSi2GePO12,2.7720000000000002,-7.388845451666667,-2.7795792590223742
mp-2715467,Na3HfSi2GePO12,2.9515000000000002,-7.573044698,-2.8606936546890402
mp-2715484,Na6NbGa3Si2(PO6)4,2.597799999999999,-7.11518324025,-2.652695438733682
mp-2715502,Na3HfTiSi2PO12,2.8265000000000002,-7.989193236625001,-3.113218985230706
mp-2715506,Na6Hf3ZnSi2(PO6)4,4.495,-7.754549317,-2.993418575671182
mp-2715452,Na6NbAl3Si2(PO6)4,2.4101,-7.405545022833334,-2.8892462357545172
mp-2715485,Na3HfSi2SnPO12,3.3055,-7.573367874,-2.891689630689039
mp-2715468,Na3HfZrSi2PO12,4.5138,-8.080052865625,-3.171468183564039
mp-2715469,Na6NbIn3Si2(PO6)4,2.6252,-7.0667381645,-2.6244195339211833
mp-2715462,Na6CaHf3Si2(PO6)4,4.5676,-7.876998292250001,-3.097221144171182
mp-2715511,Na6ZnSi2Ge3(PO6)4,2.3499,-6.8437495725,-2.482680919296182
mp-2715497,Na3HfSi2GePO12,3.3438,-7.580949934125,-2.868598890814039
mp-2715557,Na2Nb3InSi2(PO6)4,2.3707000000000003,-8.047214141481483,-2.852488455314724
mp-2715584,Na2Ta3AlSi2(PO6)4,3.0599,-8.43115513787037,-3.061894185185094
mp-2715606,Na2Ta3GaSi2(PO6)4,3.2121,-8.320476346481483,-2.971145388448985
mp-2715617,Na2LaTa3Si2(PO6)4,2.9492000000000003,-8.490500106296297,-3.088171618194353
mp-2715646,Na2ScTa3Si2(PO6)4,3.1125,-8.551462458796296,-3.110343359583241
mp-2715679,Na2Ta3InSi2(PO6)4,3.0301,-8.300031123796296,-2.958170229073983
mp-2715701,Na2LaNb3Si2(PO6)4,2.1503,-8.238759923518518,-2.9835666439721313
mp-2715714,Na2YTa3Si2(PO6)4,2.958799999999999,-8.551287365555556,-3.105262088703613
mp-2715778,Na2YNb3Si2(PO6)4,2.263899999999999,-8.301891328981482,-3.003001260685093
mp-2715720,Na2Nb3AlSi2(PO6)4,2.2658,-8.175902682037037,-2.953776937907317
mp-2715733,Na2Nb3GaSi2(PO6)4,2.3144,-8.068864832685186,-2.866669083208242
mp-2715736,Na2ScNb3Si2(PO6)4,2.2569,-8.29684796787037,-3.002864077212872
mp-667200,NaCa2TiSi2O8F,3.7511,-7.573865853666666,-3.200759918314175
mp-534807,Ca5Y7Al16Cr2(SiO24)2,0.081399999999999,-8.232659620375,-3.442913215125
mp-647450,NaCa2TiSi2O8F,3.4385,-7.5773058838333345,-3.204199948480842
mp-693759,Zr12Si2Bi2P16PbO72,2.9575,-8.529553324380954,-3.121776866517008
mp-720948,NaCa2LuSi2O7F2,1.2056,-6.86769559,-2.921783867536398
mp-1210430,Na2ZrFeSi2O8F,2.8616,-7.7704590515,-2.967169726683908
mp-1210579,Na2CaZrSi2O7F2,4.6892,-7.535625816,-3.365571821850574
mp-1227705,BaSrCaMg(SiO4)2,4.7476,-7.48535741,-3.3652290510714282
mp-558370,Ca3TiBe2Si2(As3O10)2,2.1809,-7.346335314705882,-2.6633438811274512
mp-560721,NaCaBeSi2O6F,5.510999999999999,-7.411808421874999,-3.283559422823276
mp-1214713,Ba2TiMn2Si2PO13,0.0,-8.324614591190477,-3.055706251611346
mp-556077,ZnCr6Si2Pb10(O16F)2,2.327999999999999,-7.013957033962264,-1.9324930320754712
mp-695698,Ca2TiAlSi2O9F,3.1263,-8.0683531840625,-3.509077866145833
mp-1222184,MgAl6FeSi2(BO9)2,3.7273,-8.057425206666668,-3.195869743444445
mp-1222936,Li2AlGaSi2(H2O5)2,4.349,-6.6938307752499995,-2.468709302708332
mp-1216341,Zn9Si2Te3P4(Pb3O14)3,0.0,-6.31626858884058,-2.048031977660454
mp-2712553,Na2TaAlSi2SO12,3.138099999999999,-7.680375010789474,-2.803508030925892
mp-2712563,Na2NbInSi2SO12,2.1455,-7.266873912105265,-2.5348503316802793
mp-2712566,Na2ScTaSi2SO12,2.9182,-7.898353019473685,-2.885333761978524
mp-2712604,Na2ScNbSi2SO12,2.2407,-7.7493809929824575,-2.8292892356276473
mp-2712621,Na2TaGaSi2SO12,3.1696,-7.478266008245614,-2.639161123513613
mp-2712700,Na2LaNbSi2SO12,1.8621999999999992,-7.617085227105263,-2.770491469750454
mp-2712647,Na2YTaSi2SO12,2.7117,-7.885161143508772,-2.862845970487296
mp-2712672,Na2TaInSi2SO12,0.7275,-7.419793500175439,-2.594842419610103
mp-2712722,Na2NbGaSi2SO12,2.4126,-7.325643698947369,-2.579466314355718
mp-2712774,Na2YNbSi2SO12,2.0773,-7.742215374035089,-2.812827701153963
mp-2712776,Na2NbAlSi2SO12,2.3891,-7.525946491754386,-2.742007012031155
mp-2712826,Na2ZrNbSi2PO12,2.7008,-8.164292889736842,-3.060393475389553
mp-2712808,Na2LaTaSi2SO12,2.4837,-7.763175917719299,-2.823654660224139
mp-2713031,Na2TiNbSi2PO12,2.743999999999999,-8.076849242280701,-3.007276597056218
mp-2713235,Na3LaTaSi2PO12,3.105299999999999,-7.809103623208333,-2.985616691764039
mp-2713260,Na3YNbSi2PO12,2.360999999999999,-7.789364040916667,-2.975504014855707
mp-2713232,Na3ScNbSi2PO12,2.3669000000000002,-7.795927621000001,-2.99089871468904
mp-2713289,Na3TaAlSi2PO12,3.1219,-7.7348846439166685,-2.9709192762223733
mp-2713269,Na3TaAlSi2PO12,3.4289,-7.736874076833334,-2.9729087091390403
mp-2713264,Na3ScNbSi2PO12,2.3418,-7.797891784541667,-2.992862878230707
mp-2713305,Na3NbInSi2PO12,2.3234,-7.3489974885833345,-2.7226333503557063
mp-2713644,Na3YNbSi2PO12,2.2374,-7.786526337333333,-2.972666311272373
mp-2713550,Na3NbInSi2PO12,2.252799999999999,-7.346173115,-2.719808976772372
mp-2713673,Na3LaTaSi2PO12,2.6676,-7.806887931166667,-2.983400999722372
mp-2714324,Na3YZrSi2SO12,3.9238,-7.600862392333334,-2.928538284665231
mp-2714373,Na3ZrAlSi2SO12,3.9878,-7.350321404583334,-2.81617308041523
mp-2714333,Na3AlSi2GeSO12,2.2743,-6.87751787075,-2.539603185331898
mp-2714382,Na4CaSi2SnSO12,1.2406,-6.5863986129365095,-2.503228015937329
mp-2714394,Na3HfScSi2SO12,4.209799999999999,-7.692695036000001,-2.9587276280818973
mp-2714410,Na3YTiSi2SO12,2.4153000000000002,-7.503399972666667,-2.86368629566523
mp-2714435,Na4ZrZnSi2SO12,3.2025,-6.864413003412699,-2.60065800141352
mp-2714343,Na3InSi2GeSO12,1.7953000000000001,-6.633493084166668,-2.344898503081898
mp-2714360,Na4CaTiSi2SO12,1.9929000000000001,-6.987149907380953,-2.718935493159551
mp-2714366,Na3ScTiSi2SO12,2.4676,-7.499252597083333,-2.868370039831897
mp-2714372,Na3TiAlSi2SO12,2.5827,-7.288134182083334,-2.7865962885818982
mp-2714437,Na3GaSi2GeSO12,2.147999999999999,-6.68486485925,-2.382824164206896
mp-2714340,Na3GaSi2SnSO12,2.460999999999999,-6.662767889666667,-2.391399994623563
mp-2714387,Na4MgSi2GeSO12,1.5535,-6.557162411269841,-2.4626429506992342
mp-2714398,Na3YSi2GeSO12,1.8075,-7.086007483416667,-2.609917014498563
mp-2714404,Na3MgNbSi2SO12,1.5936,-7.138572296833334,-2.632499042915229
mp-2714412,Na4MgZrSi2SO12,3.548499999999999,-7.02621394436508,-2.744805304032568
mp-2714425,Na3LaSi2GeSO12,1.662399999999999,-6.971308107416667,-2.573871858248565
mp-2714468,Na3TaZnSi2SO12,2.2546,-7.110192717666667,-2.53437465886523
mp-2714450,Na3TiInSi2SO12,2.4455,-7.054450869416668,-2.6022330802485643
mp-2714469,Na3LaSi2SnSO12,1.3023,-6.9739069296666685,-2.6071434804985643
mp-2714449,Na3InSi2SnSO12,2.040399999999999,-6.633597228583334,-2.375675447498564
mp-2714462,Na4HfZnSi2SO12,3.172799999999999,-6.963916726031747,-2.633043228794472
mp-2714451,Na3HfInSi2SO12,3.4524,-7.250036011000001,-2.69473337116523
mp-2714453,Na3CaNbSi2SO12,1.408299999999999,-7.174104686000001,-2.649274938831897
mp-2714485,Na3HfGaSi2SO12,3.518099999999999,-7.278604251250001,-2.709855497456897
mp-2714477,Na4HfMgSi2SO12,3.6522,-7.1297774967460334,-2.781250361175425
mp-2714491,Na3LaHfSi2SO12,3.841,-7.591783679500001,-2.927639371581898
mp-2714505,Na3LaZrSi2SO12,3.724599999999999,-7.495772201333334,-2.90210231341523
mp-2714499,Na3ScSi2SnSO12,2.142299999999999,-7.073302234,-2.636715684831897
mp-2714513,Na3NbZnSi2SO12,1.534,-6.9672406365,-2.479703702831897
mp-2714482,Na3TiGaSi2SO12,2.4925,-7.0987217165,-2.633057813373563
mp-2714534,Na3HfAlSi2SO12,4.1007,-7.46164546325,-2.857022719081897
mp-2714540,Na3YHfSi2SO12,3.936,-7.6961659175,-2.953367389831896
mp-2714530,Na4ZnSi2GeSO12,1.157699999999999,-6.387509986428572,-2.310644164191297
mp-2714535,Na3ZrScSi2SO12,4.0225,-7.587198760916667,-2.923705772998564
mp-2714546,Na3MgTaSi2SO12,2.325299999999999,-7.284203854833334,-2.6898494757818963
mp-2714539,Na4MgTiSi2SO12,2.1345,-6.953851426507937,-2.7035003391912973
mp-2714525,Na3ScSi2GeSO12,2.0906000000000002,-7.087548998416667,-2.620289649248564
mp-2714562,Na3AlSi2SnSO12,2.5934,-6.846068994083334,-2.53882710866523
mp-2714584,Na3YSi2SnSO12,1.866099999999999,-7.083367562916667,-2.637949893998564
mp-2714570,Na4ZnSi2SnSO12,1.3491,-6.377759919920636,-2.330106288159552
mp-2714580,Na3CaTaSi2SO12,2.1137,-7.313248033833334,-2.700137161531897
mp-2714568,Na4CaSi2GeSO12,1.6831,-6.604662906904762,-2.492280119429392
mp-2714567,Na3ZrInSi2SO12,3.4746,-7.14612958425,-2.66130136441523
mp-2714569,Na4CaHfSi2SO12,3.3384,-7.173052829761905,-2.806662367286535
mp-2714579,Na3LaTiSi2SO12,2.305,-7.388727518416667,-2.8276680611652303
mp-2714938,Na2HfNbSi2PO12,2.8016,-8.28226869254386,-3.10418567819657
mp-2714597,Na4TiZnSi2SO12,1.8464,-6.786927072857144,-2.5542296238738382
mp-2714600,Na4MgSi2SnSO12,1.774099999999999,-6.545477577063492,-2.4801703069690753
mp-2714945,Na2HfTaSi2PO12,3.6194,-8.440696474824561,-3.16968596033692
mp-2714608,Na4CaZrSi2SO12,3.431499999999999,-7.07984927468254,-2.780577307445266
mp-2714614,Na3ZrGaSi2SO12,3.457999999999999,-7.173920323000001,-2.675645989206898
mp-2715149,Na2TaSi2SnPO12,3.637,-7.7981926557017545,-2.84021462410885
mp-2715108,Na2NbSi2SnPO12,2.816099999999999,-7.640924160877193,-2.77587362942464
mp-2714998,Na2TaTiSi2PO12,2.8779,-8.235580925789474,-3.07308078042464
mp-2715158,Na2NbSi2GePO12,2.9165,-7.644178699298246,-2.746841009950956
mp-2715193,Na2ZrTaSi2PO12,3.545,-8.319485790263158,-3.122658875775517
mp-2715133,Na2TaSi2GePO12,3.3161,-7.806891705087719,-2.816626515600079
mp-2715248,Na3NbGaSi2PO12,2.3012,-7.395098722125001,-2.75528846993904
mp-2715241,Na3TaInSi2PO12,0.5356000000000001,-7.496089690375,-2.781444427014039
mp-2715252,Na3TaInSi2PO12,3.0581,-7.493973979833333,-2.779328716472373
mp-2715271,Na3LaNbSi2PO12,2.33,-7.664666998416667,-2.929461192105707
mp-2715281,Na3ScTaSi2PO12,3.2044,-7.945395340833333,-3.05208530938904
mp-2715284,Na3TaGaSi2PO12,3.348999999999999,-7.543136196583334,-2.81504481926404
mp-2715309,Na3ScTaSi2PO12,3.2202,-7.947460798291668,-3.054150766847374
mp-2715321,Na3YTaSi2PO12,3.0037,-7.932467786666667,-3.030326635472373
mp-2715324,Na3TaGaSi2PO12,3.1258,-7.5449718985,-2.816880521180707
mp-2715335,Na3NbAlSi2PO12,2.5258000000000003,-7.583748806583333,-2.9080645640223732
mp-2715381,Na3YTaSi2PO12,3.1691,-7.9363972885,-3.034256137305706
mp-2715500,Na3NbGaSi2PO12,2.575599999999999,-7.395559118083335,-2.755748865897374
mp-2715495,Na3LaNbSi2PO12,1.9971,-7.6663643565,-2.93115855018904
mp-2715526,NaTaSi2GeSO12,3.2189,-7.765238999166667,-2.643227673400702
mp-2715510,Na3NbAlSi2PO12,2.318599999999999,-7.585852285083334,-2.910168042522373
mp-2715521,Na4HfScSi2PO12,4.1143,-7.728343484285714,-3.095096679769529
mp-2715522,Na4YSi2GePO12,1.6323999999999992,-7.111558956746032,-2.723909236991751
mp-2715528,NaTaSi2SnSO12,3.309699999999999,-7.734979584166667,-2.647049147289591
mp-2715544,Na4YTiSi2PO12,2.174,-7.522378027142857,-2.978896680642545
mp-2715542,Na4TaZnSi2PO12,2.6805000000000003,-7.19993289484127,-2.717304518055243
mp-2715547,NaZrTaSi2SO12,3.4013,-8.299143273703704,-2.9590945715488512
mp-2715586,Na4LaZrSi2PO12,3.623999999999998,-7.525082363412699,-3.025452244610799
mp-2715587,NaNbSi2SnSO12,2.6549,-7.571562631296297,-2.581722333456259
mp-2715571,Na4YZrSi2PO12,3.945599999999999,-7.630282630317461,-3.055743730801275
mp-2715643,Na4LaSi2SnPO12,1.697299999999999,-7.032792901190477,-2.749264152626672
mp-2715684,Na4YSi2SnPO12,2.293799999999999,-7.147358390476191,-2.788920861198101
mp-2715597,Na4ScSi2GePO12,2.3719,-7.147762550873017,-2.7685234213568313
mp-2715603,NaTaTiSi2SO12,3.2534,-8.217818033611112,-2.9140031433081113
mp-2715650,NaHfTaSi2SO12,3.4118,-8.41952439361111,-3.001170780345147
mp-2715712,Na4CaTaSi2PO12,2.5673,-7.391976894523809,-2.873831552499687
mp-2715722,NaHfNbSi2SO12,2.6159,-8.257055471296296,-2.936791997067369
mp-2715732,Na4GaSi2GePO12,2.845399999999999,-6.78040072531746,-2.5585126949679413
mp-2715821,Na4TiGaSi2PO12,2.584399999999999,-7.164185127142857,-2.786465470047307
mp-2716142,Na4ScTiSi2PO12,2.4101,-7.54116392,-3.006093163737782
mp-2716235,Na4HfInSi2PO12,3.6615,-7.30817935920635,-2.845089476674291
mp-2715791,Na4ZrInSi2PO12,2.4837,-7.206795790476191,-2.8108244031822283
mp-2715799,Na4ZrScSi2PO12,4.1125,-7.625131216190477,-3.059002906912386
mp-2715804,NaZrNbSi2SO12,2.588,-8.134610492592593,-2.892651929474778
mp-2715810,NaTiNbSi2SO12,2.7588,-8.051757870462964,-2.846033119197
mp-2716223,Na4AlSi2GePO12,3.0837,-6.966671437777778,-2.710617702309211
mp-2715694,Na4MgTaSi2PO12,2.7792000000000003,-7.366955638412699,-2.8666736232933383
mp-2715734,NaNbSi2GeSO12,2.8213,-7.592927032407408,-2.569005845678481
mp-2715772,Na4GaSi2SnPO12,3.0958,-6.769867715396826,-2.577191875523498
mp-2716132,Na4YHfSi2PO12,3.8566000000000003,-7.7271122848412706,-3.08545489008699
mp-2716168,Na4ScSi2SnPO12,2.8185000000000002,-7.157498784682541,-2.807471845642545
mp-2716193,Na4AlSi2SnPO12,3.383399999999999,-6.9474857409523825,-2.720644195960005
mp-2716227,Na4TiInSi2PO12,2.383199999999999,-7.113392812936508,-2.748478978658418
mp-2716236,Na4ZrAlSi2PO12,4.184699999999999,-7.408771818253968,-2.965828903023497
mp-2716257,Na4CaNbSi2PO12,1.8018,-7.255013917936508,-2.8209458379441332
mp-2715690,Na4HfAlSi2PO12,4.203699999999999,-7.516120466428572,-3.006059055960006
mp-2715756,Na4LaHfSi2PO12,3.5598,-7.619811031904763,-3.053062417864768
mp-2716182,Na4LaSi2GePO12,1.2857,-6.995917273809525,-2.68317633476953
mp-723020,Al2Si2H5C2NO10,0.0,-6.906363305454545,-1.833961546647727
mp-2715717,Na4InSi2GePO12,2.0972,-6.713532185714286,-2.504449978182227
mp-2715727,Na4LaTiSi2PO12,1.8904,-7.406909891349207,-2.938337325563179
mp-2715754,Na4NbZnSi2PO12,1.7691999999999992,-7.057541740634921,-2.65899062588064
mp-2715764,Na4MgNbSi2PO12,2.0213,-7.226984977777778,-2.810780224690163
mp-2715794,Na4InSi2SnPO12,2.652699999999999,-6.7298239436507945,-2.549953926594925
mp-2716125,Na4ZrGaSi2PO12,3.7298,-7.236688584603176,-2.8279113744917512
mp-2716258,Na4HfGaSi2PO12,3.8025,-7.342106947460318,-2.866211242110799
mp-2715724,Na4TiAlSi2PO12,2.582099999999999,-7.345122631428572,-2.933237269213973
mp-1210293,NaCaTiMnSi2O8F,2.4152,-8.033062067833333,-3.182861771676244
mp-1210421,NaCaZrFeSi2O8F,3.7186999999999992,-8.0170228075,-3.169474875925288